acrolein test BLYP opt S0                                               
Freq      UB3LYP TD-FC                                                6-31G               
Number of atoms                            I                8
Info1-9                                    I   N=           9
          20          20        1001           0           0         101
           6         218        -501
Charge                                     I                0
Multiplicity                               I                1
Number of electrons                        I               30
Number of alpha electrons                  I               15
Number of beta electrons                   I               15
Number of basis functions                  I               44
Number of independent functions            I               44
Number of point charges in /Mol/           I                0
Number of translation vectors              I                0
Atomic numbers                             I   N=           8
           8           6           6           6           1           1
           1           1
Nuclear charges                            R   N=           8
  8.00000000E+00  6.00000000E+00  6.00000000E+00  6.00000000E+00  1.00000000E+00
  1.00000000E+00  1.00000000E+00  1.00000000E+00
Current cartesian coordinates              R   N=          24
 -3.53139107E+00 -3.26043186E-01 -5.31964095E-08  3.43597766E+00  2.92310254E-01
 -4.31257696E-09  1.05123949E+00 -7.42802494E-01  3.86914008E-08 -1.19159212E+00
  6.55951809E-01  5.18708610E-08 -1.23726155E+00  2.71697572E+00 -1.48863190E-08
  8.55155909E-01 -2.78842588E+00  1.56117543E-08  5.09629389E+00 -9.02763656E-01
 -4.38998421E-08  3.74522751E+00  2.31956673E+00  1.01211314E-08
Number of symbols in /Mol/                 I                0
Force Field                                I                0
Atom Types                                 C   N=           8
                                                            
                                    
Int Atom Types                             I   N=           8
           0           0           0           0           0           0
           0           0
MM charges                                 R   N=           8
  0.00000000E+00  0.00000000E+00  0.00000000E+00  0.00000000E+00  0.00000000E+00
  0.00000000E+00  0.00000000E+00  0.00000000E+00
Integer atomic weights                     I   N=           8
          16          12          12          12           1           1
           1           1
Real atomic weights                        R   N=           8
  1.59949146E+01  1.20000000E+01  1.20000000E+01  1.20000000E+01  1.00782504E+00
  1.00782504E+00  1.00782504E+00  1.00782504E+00
Atom fragment info                         I   N=           8
           0           0           0           0           0           0
           0           0
Atom residue num                           I   N=           8
           0           0           0           0           0           0
           0           0
Nuclear spins                              I   N=           8
           0           0           0           0           1           1
           1           1
Nuclear ZEff                               R   N=           8
 -5.60000000E+00 -3.60000000E+00 -3.60000000E+00 -3.60000000E+00 -1.00000000E+00
 -1.00000000E+00 -1.00000000E+00 -1.00000000E+00
Nuclear QMom                               R   N=           8
  0.00000000E+00  0.00000000E+00  0.00000000E+00  0.00000000E+00  0.00000000E+00
  0.00000000E+00  0.00000000E+00  0.00000000E+00
Nuclear GFac                               R   N=           8
  0.00000000E+00  0.00000000E+00  0.00000000E+00  0.00000000E+00  2.79284600E+00
  2.79284600E+00  2.79284600E+00  2.79284600E+00
MicOpt                                     I   N=           8
          -1          -1          -1          -1          -1          -1
          -1          -1
Number of residues                         I                0
Number of secondary structures             I                0
Number of contracted shells                I               20
Number of primitive shells                 I               56
Pure/Cartesian d shells                    I                1
Pure/Cartesian f shells                    I                0
Highest angular momentum                   I                1
Largest degree of contraction              I                6
Shell types                                I   N=          20
           0          -1          -1           0          -1          -1
           0          -1          -1           0          -1          -1
           0           0           0           0           0           0
           0           0
Number of primitives per shell             I   N=          20
           6           3           1           6           3           1
           6           3           1           6           3           1
           3           1           3           1           3           1
           3           1
Shell to atom map                          I   N=          20
           1           1           1           2           2           2
           3           3           3           4           4           4
           5           5           6           6           7           7
           8           8
Primitive exponents                        R   N=          56
  5.48467166E+03  8.25234946E+02  1.88046958E+02  5.29645000E+01  1.68975704E+01
  5.79963534E+00  1.55396162E+01  3.59993359E+00  1.01376175E+00  2.70005823E-01
  3.04752488E+03  4.57369518E+02  1.03948685E+02  2.92101553E+01  9.28666296E+00
  3.16392696E+00  7.86827235E+00  1.88128854E+00  5.44249258E-01  1.68714478E-01
  3.04752488E+03  4.57369518E+02  1.03948685E+02  2.92101553E+01  9.28666296E+00
  3.16392696E+00  7.86827235E+00  1.88128854E+00  5.44249258E-01  1.68714478E-01
  3.04752488E+03  4.57369518E+02  1.03948685E+02  2.92101553E+01  9.28666296E+00
  3.16392696E+00  7.86827235E+00  1.88128854E+00  5.44249258E-01  1.68714478E-01
  1.87311370E+01  2.82539436E+00  6.40121692E-01  1.61277759E-01  1.87311370E+01
  2.82539436E+00  6.40121692E-01  1.61277759E-01  1.87311370E+01  2.82539436E+00
  6.40121692E-01  1.61277759E-01  1.87311370E+01  2.82539436E+00  6.40121692E-01
  1.61277759E-01
Contraction coefficients                   R   N=          56
  1.83107443E-03  1.39501722E-02  6.84450781E-02  2.32714336E-01  4.70192898E-01
  3.58520853E-01 -1.10777550E-01 -1.48026263E-01  1.13076702E+00  1.00000000E+00
  1.83473713E-03  1.40373228E-02  6.88426223E-02  2.32184443E-01  4.67941348E-01
  3.62311985E-01 -1.19332420E-01 -1.60854152E-01  1.14345644E+00  1.00000000E+00
  1.83473713E-03  1.40373228E-02  6.88426223E-02  2.32184443E-01  4.67941348E-01
  3.62311985E-01 -1.19332420E-01 -1.60854152E-01  1.14345644E+00  1.00000000E+00
  1.83473713E-03  1.40373228E-02  6.88426223E-02  2.32184443E-01  4.67941348E-01
  3.62311985E-01 -1.19332420E-01 -1.60854152E-01  1.14345644E+00  1.00000000E+00
  3.34946043E-02  2.34726953E-01  8.13757326E-01  1.00000000E+00  3.34946043E-02
  2.34726953E-01  8.13757326E-01  1.00000000E+00  3.34946043E-02  2.34726953E-01
  8.13757326E-01  1.00000000E+00  3.34946043E-02  2.34726953E-01  8.13757326E-01
  1.00000000E+00
P(S=P) Contraction coefficients            R   N=          56
  0.00000000E+00  0.00000000E+00  0.00000000E+00  0.00000000E+00  0.00000000E+00
  0.00000000E+00  7.08742682E-02  3.39752839E-01  7.27158577E-01  1.00000000E+00
  0.00000000E+00  0.00000000E+00  0.00000000E+00  0.00000000E+00  0.00000000E+00
  0.00000000E+00  6.89990666E-02  3.16423961E-01  7.44308291E-01  1.00000000E+00
  0.00000000E+00  0.00000000E+00  0.00000000E+00  0.00000000E+00  0.00000000E+00
  0.00000000E+00  6.89990666E-02  3.16423961E-01  7.44308291E-01  1.00000000E+00
  0.00000000E+00  0.00000000E+00  0.00000000E+00  0.00000000E+00  0.00000000E+00
  0.00000000E+00  6.89990666E-02  3.16423961E-01  7.44308291E-01  1.00000000E+00
  0.00000000E+00  0.00000000E+00  0.00000000E+00  0.00000000E+00  0.00000000E+00
  0.00000000E+00  0.00000000E+00  0.00000000E+00  0.00000000E+00  0.00000000E+00
  0.00000000E+00  0.00000000E+00  0.00000000E+00  0.00000000E+00  0.00000000E+00
  0.00000000E+00
Coordinates of each shell                  R   N=          60
 -3.53139107E+00 -3.26043186E-01 -5.31964095E-08 -3.53139107E+00 -3.26043186E-01
 -5.31964095E-08 -3.53139107E+00 -3.26043186E-01 -5.31964095E-08  3.43597766E+00
  2.92310254E-01 -4.31257696E-09  3.43597766E+00  2.92310254E-01 -4.31257696E-09
  3.43597766E+00  2.92310254E-01 -4.31257696E-09  1.05123949E+00 -7.42802494E-01
  3.86914008E-08  1.05123949E+00 -7.42802494E-01  3.86914008E-08  1.05123949E+00
 -7.42802494E-01  3.86914008E-08 -1.19159212E+00  6.55951809E-01  5.18708610E-08
 -1.19159212E+00  6.55951809E-01  5.18708610E-08 -1.19159212E+00  6.55951809E-01
  5.18708610E-08 -1.23726155E+00  2.71697572E+00 -1.48863190E-08 -1.23726155E+00
  2.71697572E+00 -1.48863190E-08  8.55155909E-01 -2.78842588E+00  1.56117543E-08
  8.55155909E-01 -2.78842588E+00  1.56117543E-08  5.09629389E+00 -9.02763656E-01
 -4.38998421E-08  5.09629389E+00 -9.02763656E-01 -4.38998421E-08  3.74522751E+00
  2.31956673E+00  1.01211314E-08  3.74522751E+00  2.31956673E+00  1.01211314E-08
Constraint Structure                       R   N=          24
 -3.53139107E+00 -3.26043186E-01 -5.31964095E-08  3.43597766E+00  2.92310254E-01
 -4.31257696E-09  1.05123949E+00 -7.42802494E-01  3.86914008E-08 -1.19159212E+00
  6.55951809E-01  5.18708610E-08 -1.23726155E+00  2.71697572E+00 -1.48863190E-08
  8.55155909E-01 -2.78842588E+00  1.56117543E-08  5.09629389E+00 -9.02763656E-01
 -4.38998421E-08  3.74522751E+00  2.31956673E+00  1.01211314E-08
Num ILSW                                   I              100
ILSW                                       I   N=         100
           1           1           0           0           2           0
           0           0           3           0         402          -1
           0           0           0           0           2           0
           0           0           0           0           1           0
           1           1           0           0           0           0
           0           0      100000           0          -1           0
           0           0           0           0           0           0
           0           0           0           1           0           0
           0           0           1           0           0           0
           0           0           4          40           0           0
           0           0           5           0           0           0
           0           0           0           0           0           0
           0           0           0           0           0           0
           0           0           0           0           0           0
           0           0           0           0           0           0
           0           0           0           0           0           0
           0           0           0           0
Num RLSW                                   I               40
RLSW                                       R   N=          40
  8.00000000E-01  7.20000000E-01  1.00000000E+00  8.10000000E-01  2.00000000E-01
  0.00000000E+00  0.00000000E+00  1.00000000E+00  0.00000000E+00  0.00000000E+00
  0.00000000E+00  0.00000000E+00  1.00000000E+00  0.00000000E+00  0.00000000E+00
  0.00000000E+00  0.00000000E+00  1.00000000E+00  0.00000000E+00  0.00000000E+00
  0.00000000E+00  0.00000000E+00  1.00000000E+00  0.00000000E+00  0.00000000E+00
  0.00000000E+00  0.00000000E+00  1.00000000E+00  0.00000000E+00  0.00000000E+00
  0.00000000E+00  0.00000000E+00  1.00000000E+00  0.00000000E+00  0.00000000E+00
  0.00000000E+00  0.00000000E+00  0.00000000E+00  1.00000000E+00  1.00000000E+00
MxBond                                     I                3
NBond                                      I   N=           8
           1           3           3           3           1           1
           1           1
IBond                                      I   N=          24
           4           0           0           3           7           8
           2           4           6           1           3           5
           4           0           0           3           0           0
           2           0           0           2           0           0
RBond                                      R   N=          24
  2.00000000E+00  0.00000000E+00  0.00000000E+00  2.00000000E+00  1.00000000E+00
  1.00000000E+00  2.00000000E+00  1.00000000E+00  1.00000000E+00  2.00000000E+00
  1.00000000E+00  1.00000000E+00  1.00000000E+00  0.00000000E+00  0.00000000E+00
  1.00000000E+00  0.00000000E+00  0.00000000E+00  1.00000000E+00  0.00000000E+00
  0.00000000E+00  1.00000000E+00  0.00000000E+00  0.00000000E+00
Virial Ratio                               R      2.006721579475770E+00
SCF Energy                                 R     -1.918420214082564E+02
CIS Energy                                 R     -1.917690476210733E+02
Total Energy                               R     -1.917690476210733E+02
Post-SCF wavefunction norm                 R      1.000000000000000E+00
S**2                                       R     -3.552713678800501E-15
S**2 after annihilation                    R      9.023892744153209E-13
RMS Force                                  R      4.927327382385140E-05
RMS Density                                R      7.237696562814412E-09
External E-field                           R   N=          35
  0.00000000E+00  0.00000000E+00  0.00000000E+00  0.00000000E+00  0.00000000E+00
  0.00000000E+00  0.00000000E+00  0.00000000E+00  0.00000000E+00  0.00000000E+00
  0.00000000E+00  0.00000000E+00  0.00000000E+00  0.00000000E+00  0.00000000E+00
  0.00000000E+00  0.00000000E+00  0.00000000E+00  0.00000000E+00  0.00000000E+00
  0.00000000E+00  0.00000000E+00  0.00000000E+00  0.00000000E+00  0.00000000E+00
  0.00000000E+00  0.00000000E+00  0.00000000E+00  0.00000000E+00  0.00000000E+00
  0.00000000E+00  0.00000000E+00  0.00000000E+00  0.00000000E+00  0.00000000E+00
IOpCl                                      I                1
IROHF                                      I                0
Alpha Orbital Energies                     R   N=          44
 -1.91450005E+01 -1.02768431E+01 -1.02338265E+01 -1.02213846E+01 -9.94622893E-01
 -8.17738262E-01 -6.76405753E-01 -5.83243747E-01 -4.91592316E-01 -4.83022666E-01
 -4.06090817E-01 -3.91379762E-01 -3.80036843E-01 -2.87235371E-01 -2.52740713E-01
 -9.52499299E-02  4.67512637E-02  9.59197719E-02  1.08361702E-01  1.44203300E-01
  1.82434215E-01  2.33341678E-01  2.91806669E-01  3.66169045E-01  5.03806724E-01
  5.27356053E-01  5.54108712E-01  5.84659441E-01  6.18406637E-01  6.34045717E-01
  6.52906366E-01  6.66257628E-01  8.25242119E-01  8.56124329E-01  8.94014827E-01
  9.32385797E-01  9.47220658E-01  9.87231751E-01  9.92729367E-01  1.09418257E+00
  1.12285773E+00  1.19034488E+00  1.30414104E+00  1.71130959E+00
Beta Orbital Energies                      R   N=          44
 -1.91450005E+01 -1.02768431E+01 -1.02338265E+01 -1.02213846E+01 -9.94622893E-01
 -8.17738262E-01 -6.76405753E-01 -5.83243747E-01 -4.91592316E-01 -4.83022666E-01
 -4.06090817E-01 -3.91379762E-01 -3.80036843E-01 -2.87235371E-01 -2.52740713E-01
 -9.52499299E-02  4.67512637E-02  9.59197719E-02  1.08361702E-01  1.44203300E-01
  1.82434215E-01  2.33341678E-01  2.91806669E-01  3.66169045E-01  5.03806724E-01
  5.27356053E-01  5.54108712E-01  5.84659441E-01  6.18406637E-01  6.34045717E-01
  6.52906366E-01  6.66257628E-01  8.25242119E-01  8.56124329E-01  8.94014827E-01
  9.32385797E-01  9.47220658E-01  9.87231751E-01  9.92729367E-01  1.09418257E+00
  1.12285773E+00  1.19034488E+00  1.30414104E+00  1.71130959E+00
Alpha MO coefficients                      R   N=        1936
  9.95155009E-01  2.88910053E-02  2.00063924E-03  8.08550482E-04  1.00812075E-10
 -1.87750547E-02 -5.65276448E-03 -2.10489912E-03 -2.83460563E-10 -2.76306132E-05
 -3.73240864E-04  3.40701934E-04 -1.00324574E-04 -1.94631951E-11 -1.61299801E-03
 -6.82077814E-04  1.10470239E-03  1.42424722E-11  2.89517775E-05  1.00141131E-04
  9.50957598E-05 -1.67680359E-04  5.86456952E-12 -1.49304143E-03  2.99448620E-03
  2.38917349E-03  5.41970135E-11  6.43956992E-05 -3.19915055E-04 -8.80899967E-05
  1.59604231E-04 -1.56566097E-11  9.07133207E-03 -6.51210079E-03 -5.36375837E-03
 -2.71294922E-10 -8.33084929E-05  1.34162248E-03  3.16465683E-04  1.44796487E-03
  1.54126116E-04  8.76616781E-04 -2.20579042E-04 -2.77804662E-05  1.77383588E-05
 -6.91113774E-05 -4.47092966E-04 -9.11496477E-05 -7.96364299E-12  9.97340893E-05
 -7.80336148E-04 -1.01181162E-03 -1.21130164E-10 -2.00228430E-04 -5.05932542E-04
  3.43952042E-04 -5.16680890E-05 -5.79743872E-12  3.15484186E-04 -1.03600609E-03
 -2.13251987E-05  3.13519913E-11  3.78204299E-03 -1.81124910E-03  1.02803329E-03
 -7.05441317E-04 -4.55647583E-12  9.20720112E-03 -4.45813140E-03  3.55913251E-03
 -7.66827275E-12  9.95110168E-01  3.41876111E-02 -5.73257070E-05 -2.79158955E-04
 -7.66260293E-11 -2.34957338E-02 -5.22301250E-03  8.00374758E-04  1.75663431E-10
 -1.08011669E-03  4.59187733E-03 -1.99911749E-04  9.29325798E-04  5.81883485E-05
  8.21761383E-04 -1.38483310E-04  1.47496312E-04 -1.60613693E-05 -3.10946972E-04
 -3.77525501E-05  1.61493448E-05 -8.10289971E-12  1.12744266E-03  5.03929111E-04
 -2.49279858E-06  4.41981936E-11  9.94885672E-01  3.48305786E-02 -1.05904381E-04
 -1.78158728E-05  6.17917980E-12 -2.66886456E-02  2.29789197E-03  9.64762566E-04
 -5.83707834E-11  2.23088564E-02 -1.21290998E-03 -1.15842082E-03 -4.93787236E-04
  1.73634798E-11  8.85449532E-03  4.24889022E-03  1.54776842E-03 -6.81688765E-11
  3.61866458E-05 -4.68227988E-04 -1.40971305E-04  2.71549096E-05  9.44040778E-12
  2.38413521E-04  8.34200623E-04  4.37493748E-04 -3.17423020E-12 -1.13578085E-04
 -2.70677396E-04 -3.13241058E-04  1.76463282E-04 -1.03670086E-03  4.79866813E-03
 -1.01757788E-03  4.80752323E-03  2.44699277E-06 -3.46105177E-05 -1.37052022E-05
 -5.17698253E-05  1.54198056E-12 -2.41370092E-04 -4.62841874E-04  3.09649551E-04
  2.66371115E-12 -2.25511350E-02 -2.86612718E-03  1.00447660E-03  3.84778884E-04
 -2.16274521E-11  1.18454750E-02 -5.41814066E-03 -7.41226500E-05  9.18741018E-11
  9.94922722E-01  3.61099260E-02 -4.60736650E-05  5.95337767E-04 -2.06973171E-11
 -3.39938334E-02  3.47249277E-04 -5.60122746E-03  1.05618053E-10 -3.98298440E-03
 -2.21674440E-03 -8.93768797E-04  6.23253701E-04  1.66401265E-12  1.23434428E-02
  5.20244818E-03 -2.43404693E-03 -7.45709217E-11 -3.95730667E-04 -2.07955616E-04
 -1.06364827E-03  3.43600530E-03 -8.48291289E-05  5.40149360E-04 -4.71250568E-04
 -1.04175047E-03 -1.92266579E-01  4.24976939E-01  1.43449323E-01  5.75889260E-02
  6.11733869E-09  4.37505243E-01  7.24556354E-02  2.71637282E-02  3.23465420E-09
 -6.83576488E-03  1.63719056E-02 -1.08583513E-02 -1.22163422E-03  1.56548662E-10
  1.50391482E-02  6.69317626E-03 -1.15572325E-02 -9.42965798E-11 -3.01812463E-02
  5.92278000E-02 -3.41971105E-02  1.40607932E-02 -4.40977369E-10  3.30780381E-02
 -2.16189419E-02 -5.97365826E-03 -4.03267463E-10 -1.11081572E-01  2.27900335E-01
 -1.30185385E-01 -6.64047063E-02 -7.36309626E-09  6.05382176E-02  3.23878903E-02
  2.97692566E-02  1.00584565E-09  3.63322068E-02 -7.75502803E-03  1.13997985E-02
 -8.81958187E-05  8.99983293E-04 -8.56496695E-03  4.49061264E-03  2.95064966E-03
  5.35171348E-02 -1.22665336E-01 -9.32180907E-03 -1.51378023E-02 -1.26726179E-09
 -1.27404080E-01 -4.99178992E-03 -3.58659724E-03 -1.70268468E-10 -1.32912879E-01
  2.61882009E-01 -9.25122175E-02 -3.19841943E-02  1.64815521E-09  1.92553680E-01
 -1.51579855E-02  8.60125149E-03  3.24732127E-10 -1.61831405E-01  3.23042894E-01
  3.73260048E-02  6.77265164E-02 -1.87060522E-09  2.00115487E-01  8.41155858E-03
 -1.29713721E-02 -3.38698400E-10 -6.09513823E-02  1.24347695E-01  1.51573075E-01
 -2.18038258E-02  7.26028050E-10  9.78794788E-02  3.08960789E-02  1.19561046E-03
 -1.69951415E-10  3.15199128E-02  3.84490396E-03  7.77032848E-02  4.64304289E-03
  6.75734402E-02  1.74021783E-02  6.94256741E-02  8.64627804E-03 -6.62067822E-02
  1.52120209E-01 -3.60669024E-02  8.10333523E-04 -2.36158342E-10  1.90207412E-01
 -1.31350812E-02  3.14916109E-03 -1.62414554E-10 -1.42646272E-01  2.89727539E-01
  6.21981313E-02 -8.85569852E-03 -5.35543334E-10  2.58055282E-01  2.98141299E-02
 -7.65968657E-03 -2.39255757E-10  5.28000954E-02 -1.10220304E-01  2.34981468E-01
 -3.32119636E-02 -2.52204187E-09 -8.66868981E-02  3.84796756E-02  7.87055551E-03
 -6.87390378E-10  1.12467074E-01 -2.40757421E-01 -1.60837869E-01  1.71774660E-02
 -2.78687883E-10 -2.03511139E-01 -3.31953689E-02 -7.32447372E-03  2.17612327E-10
 -8.23497242E-02 -1.84412034E-02 -3.59751683E-02 -1.33105027E-03  1.35679507E-01
  4.46572928E-02  1.15403421E-01  4.13597217E-02  3.96204994E-02 -9.27405482E-02
  2.66737111E-02  8.61832776E-02  5.86779574E-10 -1.13178940E-01  1.52156421E-02
  4.08163538E-02  8.74768836E-10 -4.43449639E-02  8.93524910E-02  8.38765305E-02
  1.48771738E-01 -7.27595623E-10  1.00816701E-01  1.52451796E-02  5.14057916E-02
 -2.71666882E-10  9.17618970E-02 -1.87632974E-01 -2.23176538E-02  1.99444715E-01
  1.45677312E-09 -2.01964307E-01 -6.12284027E-04  5.34801323E-02  5.96450028E-10
 -8.93128789E-02  1.92008769E-01 -5.37129159E-03  2.27641422E-01 -3.67892349E-09
  1.91738323E-01  2.53658637E-02  7.85057481E-02 -9.03833121E-10  1.86295465E-01
  8.96407952E-02 -1.73924140E-01 -8.82928910E-02  3.50571114E-02  1.93832298E-02
  1.19755694E-01  6.47981636E-02  1.57311615E-02 -3.40643046E-02 -1.30703688E-02
  1.44205668E-01 -1.01173464E-09 -6.11506297E-02 -1.21327024E-02  7.26073066E-02
 -5.88275773E-10  1.06696843E-02 -2.12954591E-02 -8.91978256E-02 -2.97362362E-01
 -1.02088203E-09 -4.74983424E-02 -2.32872182E-02 -1.11600225E-01 -9.86552587E-10
 -9.82098859E-03  1.85386264E-02  2.57743427E-01 -1.18293761E-01 -6.30900621E-09
  2.84657398E-02  8.19276064E-02 -4.09174525E-02 -1.74136261E-09 -1.18051495E-02
  2.59778337E-02 -1.60456176E-01  2.98611850E-01 -7.16045876E-09  4.99241800E-02
 -4.39980237E-02  1.06398025E-01 -3.06504394E-09  1.73471942E-01  1.06319317E-01
  6.22949197E-02  3.84043871E-02  4.35322721E-02  3.01475636E-02 -1.86498372E-01
 -1.20449911E-01  5.35574778E-02 -1.16115214E-01  1.61674657E-01  3.16046505E-02
  8.26482486E-09 -2.16256598E-01  6.96534479E-02  9.45519981E-03  3.32650248E-09
 -6.06587391E-03  1.30990625E-02  3.91876146E-01 -8.11998100E-02 -8.90507704E-09
  8.19126245E-03  1.44507234E-01 -3.12817013E-02 -3.47845346E-09  3.10460856E-02
 -6.55006726E-02 -2.18648459E-01 -2.20533803E-01  1.44119847E-09 -5.68680099E-02
 -2.72054981E-02 -7.56771667E-02 -6.62681688E-11 -5.00754866E-02  1.19161360E-01
 -7.09642269E-02 -8.10334020E-02 -1.56578090E-10  1.39927424E-01 -1.86909240E-02
 -4.99182986E-02  7.66415172E-10  1.87960741E-02  1.04159851E-02  1.00219620E-01
  7.05459352E-02  2.24479333E-01  1.57763783E-01 -2.10449639E-03 -1.40729578E-04
  3.37398491E-02 -7.33707126E-02  1.41397059E-01  1.46651489E-01  7.50618753E-09
 -1.30595029E-01  7.64967368E-02  7.87663369E-02  4.15575868E-09  4.90619998E-03
 -1.02741484E-02 -8.96862488E-02  2.96662747E-01  3.92343236E-09 -1.10748069E-03
 -3.91002288E-02  1.06300822E-01  1.43136867E-09 -7.37130913E-03  1.04978234E-02
  6.44315568E-02 -2.80233767E-01 -4.06058406E-09  4.57930020E-02  2.49433197E-04
 -1.18145708E-01 -1.53867878E-09  1.25872729E-02 -2.29200377E-02 -2.51023282E-01
  7.14405000E-02 -6.78603372E-09 -5.63936697E-02 -6.76592156E-02  4.79932264E-02
 -2.02075765E-09  4.13658931E-02  3.71687067E-02  1.98284354E-01  1.48323403E-01
 -1.85362003E-01 -1.59692970E-01  2.00327768E-01  1.81152671E-01  6.25217256E-02
 -1.34421319E-01  4.30880390E-01  9.85369737E-02  3.56930322E-08 -2.30091805E-01
  2.47984655E-01  5.96474287E-02  2.17090716E-08 -2.24312482E-02  5.34986586E-02
 -1.62273046E-01 -9.56969972E-02  6.97912229E-09  9.79693829E-02 -5.73106127E-02
 -4.84477671E-02  3.84862655E-09  9.07565695E-03 -1.25332865E-02  1.40555977E-01
  1.62815147E-01  5.69549224E-09 -6.40249272E-02  1.75853841E-02  2.47374772E-02
  2.82977599E-09 -2.69317195E-02  8.32141169E-02 -2.39024040E-01 -2.36391732E-01
  8.12309266E-09  3.78236218E-02 -1.09966248E-02 -5.37038070E-02  8.66859275E-09
 -1.29686549E-01 -1.40481465E-01 -1.41699555E-01 -1.43206972E-01 -2.30678257E-02
 -3.89994628E-02 -6.26238013E-02 -7.22827733E-02 -2.40868879E-09  4.69192177E-09
 -3.41003602E-08 -2.48855313E-09  3.42819090E-01  1.10936193E-08 -1.92196383E-08
 -1.05448575E-09  2.11209673E-01  8.06790731E-10 -1.94192638E-09  7.05087761E-09
  1.89153750E-09  1.60533970E-01 -4.33244846E-09  3.40330168E-09 -8.44089364E-10
  9.82482691E-02 -8.98670703E-10  1.16991947E-09  1.68408889E-09 -8.74895735E-09
  2.71818775E-01  9.10068243E-09 -9.00867032E-11  1.98591360E-09  1.50648957E-01
 -1.75877178E-09  3.66517816E-09 -5.20204073E-10  1.23306866E-08  3.60274176E-01
  6.90766308E-10 -7.65368253E-09  4.32678053E-09  2.25175523E-01  4.51953104E-09
  6.69665927E-09  5.60483475E-09  7.52604894E-09 -2.49567875E-10  2.74163605E-10
  2.26442242E-09  3.95081977E-09 -1.18852097E-10  4.13140005E-10 -2.13715521E-08
 -1.09488730E-08  3.82741969E-01 -2.21631475E-09 -1.57112394E-08 -8.09721210E-09
  2.72846224E-01 -3.19444980E-10  5.91970146E-10 -7.62999483E-09  2.94722251E-09
 -3.50005824E-01 -3.61852534E-09 -4.73336588E-09  3.01929212E-09 -2.60979506E-01
  6.18931132E-10 -1.33467910E-09 -4.42040221E-09  6.97948268E-10 -3.03190374E-01
  1.28706772E-09 -1.49824929E-10  6.58783748E-09 -2.23391195E-01 -6.00881797E-10
  1.48950142E-09 -5.33356052E-10  2.89253798E-09  1.00293883E-01 -1.38748239E-10
 -7.37670507E-09 -3.86596692E-09  1.01970594E-01  1.92089820E-09  6.56482014E-09
  1.72048871E-09  4.36751759E-09 -7.23353398E-10 -7.33333270E-11  2.00148746E-10
  6.93720632E-10 -6.35593239E-04  8.61743194E-03 -2.15512019E-01  5.89359493E-01
 -3.98408380E-09 -3.50817791E-02 -1.57985358E-01  4.04416533E-01 -3.77454256E-09
  5.97991827E-03 -5.54781568E-03  4.44761165E-02  1.44057047E-02 -7.70566430E-09
 -1.08868021E-01  9.29402444E-02  4.30272716E-03 -8.53421665E-09 -3.38084421E-02
  5.99269166E-02 -1.39428451E-01  6.99170324E-02 -2.01535854E-09  4.16855050E-01
 -7.93779842E-02  1.38402535E-01  1.50590513E-09  4.28392626E-03  1.51281512E-02
  3.45397893E-02 -1.13636371E-01  3.88167812E-10 -1.35522526E-01 -1.69629355E-01
  1.05254766E-01 -3.88604700E-09 -1.50694660E-01 -2.44154066E-01 -1.71320015E-02
 -5.34213738E-02  2.20904988E-02  1.54169393E-02 -4.61974938E-03 -1.31492459E-02
  1.32903845E-10  5.82168929E-10 -1.59670559E-08  2.56645831E-10  3.67469058E-01
 -6.20266041E-09 -1.58976547E-08 -7.35441091E-10  3.25393785E-01  1.07518662E-09
 -2.38240499E-09  1.08207971E-08 -2.31859597E-09  3.81243822E-01 -1.45667504E-08
  1.24609463E-08  2.10185983E-09  4.26732793E-01 -1.32528080E-09  4.07880392E-09
 -9.93794774E-09  4.62028717E-09 -1.91290232E-01  9.87160205E-09  2.61807135E-09
  9.07562409E-09 -2.23816211E-01  2.56390849E-09 -2.78536535E-09  1.01770586E-08
 -2.20338186E-09 -3.45509541E-01 -1.74750184E-08 -2.34677475E-10 -6.95766487E-09
 -2.74059627E-01  5.11648772E-09  8.36918739E-09  1.01355227E-09  1.57552139E-09
  2.03641825E-09  6.31323270E-09 -4.30819078E-10 -2.21051909E-09 -2.15113701E-09
  7.08169026E-09  6.76104443E-09  2.68943474E-09  2.28904306E-01  1.01163236E-08
  1.44700543E-09  9.01004604E-09  2.67198043E-01  2.80095699E-09 -6.57355970E-09
 -2.05211085E-09  3.80399293E-09 -2.37087895E-01 -3.53101421E-08 -1.59987029E-08
  2.05256513E-08 -4.57311044E-01 -3.87380583E-09  1.06733589E-08 -4.51733839E-09
  3.02677550E-09  4.41411194E-01  4.25755218E-09  2.83116956E-08 -2.56666071E-09
  6.90958749E-01  9.12927273E-09 -1.54658597E-08  9.47981654E-09 -6.09239066E-09
 -4.09954676E-01 -7.24939580E-08  2.87197274E-08 -4.36318234E-08 -5.71666441E-01
  1.35361808E-08  7.82409204E-08 -1.49411512E-09 -5.89679550E-09  4.93454213E-09
  3.48050437E-08 -3.57531862E-09 -2.27035727E-09  2.00622027E-02 -3.55724484E-02
 -1.02680010E-01 -6.00704442E-02 -1.00054287E-09 -2.54648862E-01 -1.54880851E-01
 -9.72903676E-02 -3.10156872E-09 -1.00860238E-01  1.66650576E-01  1.87893960E-01
 -5.13341774E-02 -5.58949781E-09  1.55195164E+00  5.86507534E-01 -1.13371539E-01
 -1.68388917E-08 -3.44503009E-02  4.17339449E-02 -3.84626309E-02 -1.92816996E-01
  5.99937209E-09  8.55718258E-01 -3.36040171E-01 -3.65508105E-01  1.27407170E-08
 -1.54963860E-02  4.47702232E-02 -5.60237145E-02 -3.96074274E-02 -8.60627944E-09
 -3.42772446E-02 -3.58675868E-01  6.71502642E-02 -2.06456358E-08  6.16574670E-02
  4.23853640E-02 -7.09523912E-02 -9.55902836E-01 -9.87890618E-02 -1.47892334E+00
 -1.71088763E-02 -6.09868268E-01  3.37418875E-04  2.78416862E-04 -1.27373581E-02
  2.61236830E-02 -7.48826476E-09  5.50164878E-03 -3.24048582E-02  9.71172173E-02
 -1.12003573E-08  6.67694205E-02 -9.89484093E-02 -4.34034845E-02 -2.43420929E-01
  4.28694502E-09 -1.02790462E+00 -1.29754363E-01 -5.92346331E-01  8.47099820E-09
 -5.00082522E-02  9.27537145E-02 -1.14640616E-02 -1.37507110E-01 -1.25967137E-08
  4.85806308E-01  4.80914381E-02 -2.95846201E-01 -2.69917809E-08  4.33098757E-02
 -6.39849776E-02 -1.27647734E-02 -2.34063780E-01  1.53903384E-08 -6.51424018E-01
  7.47322919E-02 -5.46669471E-01  3.51612311E-08  4.17473128E-02  1.09780849E+00
 -1.07213570E-01 -9.28876032E-01  9.06031443E-03  9.85929511E-02  7.08140442E-02
  1.38909097E+00  2.94933330E-03 -2.41710504E-03  3.31583702E-02  6.46617087E-02
 -9.27608908E-09 -7.87045272E-02 -9.03982796E-03  9.51122865E-02 -1.75074343E-08
 -4.83605906E-02  7.50484233E-02 -7.60953063E-02  1.82813020E-01  1.13132974E-08
  7.41486580E-01 -3.42194862E-01  4.82445873E-01  2.78010659E-08  2.82154971E-03
  4.70367851E-04 -1.45664935E-01  9.85238219E-02 -1.15637814E-08 -1.40921233E-01
 -4.40894612E-01  3.46068876E-01 -2.25390246E-08  9.95089886E-02 -1.66250415E-01