acrolein test BLYP opt S0                                               
Freq      RBLYP                                                       6-31G               
Number of atoms                            I                8
Info1-9                                    I   N=           9
          18          18           0           0           0         101
           6          18         202
Charge                                     I                0
Multiplicity                               I                1
Number of electrons                        I               30
Number of alpha electrons                  I               15
Number of beta electrons                   I               15
Number of basis functions                  I               44
Number of independent functions            I               44
Number of point charges in /Mol/           I                0
Number of translation vectors              I                0
Atomic numbers                             I   N=           8
           8           6           6           6           1           1
           1           1
Nuclear charges                            R   N=           8
  8.00000000E+00  6.00000000E+00  6.00000000E+00  6.00000000E+00  1.00000000E+00
  1.00000000E+00  1.00000000E+00  1.00000000E+00
Current cartesian coordinates              R   N=          24
 -3.46290235E+00 -2.71600888E-01  0.00000000E+00  3.37008089E+00  2.77906905E-01
  0.00000000E+00  1.06741370E+00 -8.40312078E-01  0.00000000E+00 -1.28272720E+00
  6.63906144E-01  0.00000000E+00 -1.00312521E+00  2.75732208E+00  0.00000000E+00
  8.47043283E-01 -2.89688213E+00  0.00000000E+00  5.12707833E+00 -8.05142385E-01
  0.00000000E+00  3.56078828E+00  2.33957166E+00  0.00000000E+00
Force Field                                I                0
Int Atom Types                             I   N=           8
           0           0           0           0           0           0
           0           0
MM charges                                 R   N=           8
  0.00000000E+00  0.00000000E+00  0.00000000E+00  0.00000000E+00  0.00000000E+00
  0.00000000E+00  0.00000000E+00  0.00000000E+00
Integer atomic weights                     I   N=           8
          16          12          12          12           1           1
           1           1
Real atomic weights                        R   N=           8
  1.59949146E+01  1.20000000E+01  1.20000000E+01  1.20000000E+01  1.00782504E+00
  1.00782504E+00  1.00782504E+00  1.00782504E+00
Atom fragment info                         I   N=           8
           0           0           0           0           0           0
           0           0
Atom residue num                           I   N=           8
           0           0           0           0           0           0
           0           0
Nuclear spins                              I   N=           8
           0           0           0           0           1           1
           1           1
Nuclear ZEff                               R   N=           8
 -5.60000000E+00 -3.60000000E+00 -3.60000000E+00 -3.60000000E+00 -1.00000000E+00
 -1.00000000E+00 -1.00000000E+00 -1.00000000E+00
Nuclear QMom                               R   N=           8
  0.00000000E+00  0.00000000E+00  0.00000000E+00  0.00000000E+00  0.00000000E+00
  0.00000000E+00  0.00000000E+00  0.00000000E+00
Nuclear GFac                               R   N=           8
  0.00000000E+00  0.00000000E+00  0.00000000E+00  0.00000000E+00  2.79284600E+00
  2.79284600E+00  2.79284600E+00  2.79284600E+00
MicOpt                                     I   N=           8
          -1          -1          -1          -1          -1          -1
          -1          -1
Number of contracted shells                I               20
Number of primitive shells                 I               56
Pure/Cartesian d shells                    I                1
Pure/Cartesian f shells                    I                0
Highest angular momentum                   I                1
Largest degree of contraction              I                6
Shell types                                I   N=          20
           0          -1          -1           0          -1          -1
           0          -1          -1           0          -1          -1
           0           0           0           0           0           0
           0           0
Number of primitives per shell             I   N=          20
           6           3           1           6           3           1
           6           3           1           6           3           1
           3           1           3           1           3           1
           3           1
Shell to atom map                          I   N=          20
           1           1           1           2           2           2
           3           3           3           4           4           4
           5           5           6           6           7           7
           8           8
Primitive exponents                        R   N=          56
  5.48467166E+03  8.25234946E+02  1.88046958E+02  5.29645000E+01  1.68975704E+01
  5.79963534E+00  1.55396162E+01  3.59993359E+00  1.01376175E+00  2.70005823E-01
  3.04752488E+03  4.57369518E+02  1.03948685E+02  2.92101553E+01  9.28666296E+00
  3.16392696E+00  7.86827235E+00  1.88128854E+00  5.44249258E-01  1.68714478E-01
  3.04752488E+03  4.57369518E+02  1.03948685E+02  2.92101553E+01  9.28666296E+00
  3.16392696E+00  7.86827235E+00  1.88128854E+00  5.44249258E-01  1.68714478E-01
  3.04752488E+03  4.57369518E+02  1.03948685E+02  2.92101553E+01  9.28666296E+00
  3.16392696E+00  7.86827235E+00  1.88128854E+00  5.44249258E-01  1.68714478E-01
  1.87311370E+01  2.82539436E+00  6.40121692E-01  1.61277759E-01  1.87311370E+01
  2.82539436E+00  6.40121692E-01  1.61277759E-01  1.87311370E+01  2.82539436E+00
  6.40121692E-01  1.61277759E-01  1.87311370E+01  2.82539436E+00  6.40121692E-01
  1.61277759E-01
Contraction coefficients                   R   N=          56
  1.83107443E-03  1.39501722E-02  6.84450781E-02  2.32714336E-01  4.70192898E-01
  3.58520853E-01 -1.10777550E-01 -1.48026263E-01  1.13076702E+00  1.00000000E+00
  1.83473713E-03  1.40373228E-02  6.88426223E-02  2.32184443E-01  4.67941348E-01
  3.62311985E-01 -1.19332420E-01 -1.60854152E-01  1.14345644E+00  1.00000000E+00
  1.83473713E-03  1.40373228E-02  6.88426223E-02  2.32184443E-01  4.67941348E-01
  3.62311985E-01 -1.19332420E-01 -1.60854152E-01  1.14345644E+00  1.00000000E+00
  1.83473713E-03  1.40373228E-02  6.88426223E-02  2.32184443E-01  4.67941348E-01
  3.62311985E-01 -1.19332420E-01 -1.60854152E-01  1.14345644E+00  1.00000000E+00
  3.34946043E-02  2.34726953E-01  8.13757326E-01  1.00000000E+00  3.34946043E-02
  2.34726953E-01  8.13757326E-01  1.00000000E+00  3.34946043E-02  2.34726953E-01
  8.13757326E-01  1.00000000E+00  3.34946043E-02  2.34726953E-01  8.13757326E-01
  1.00000000E+00
P(S=P) Contraction coefficients            R   N=          56
  0.00000000E+00  0.00000000E+00  0.00000000E+00  0.00000000E+00  0.00000000E+00
  0.00000000E+00  7.08742682E-02  3.39752839E-01  7.27158577E-01  1.00000000E+00
  0.00000000E+00  0.00000000E+00  0.00000000E+00  0.00000000E+00  0.00000000E+00
  0.00000000E+00  6.89990666E-02  3.16423961E-01  7.44308291E-01  1.00000000E+00
  0.00000000E+00  0.00000000E+00  0.00000000E+00  0.00000000E+00  0.00000000E+00
  0.00000000E+00  6.89990666E-02  3.16423961E-01  7.44308291E-01  1.00000000E+00
  0.00000000E+00  0.00000000E+00  0.00000000E+00  0.00000000E+00  0.00000000E+00
  0.00000000E+00  6.89990666E-02  3.16423961E-01  7.44308291E-01  1.00000000E+00
  0.00000000E+00  0.00000000E+00  0.00000000E+00  0.00000000E+00  0.00000000E+00
  0.00000000E+00  0.00000000E+00  0.00000000E+00  0.00000000E+00  0.00000000E+00
  0.00000000E+00  0.00000000E+00  0.00000000E+00  0.00000000E+00  0.00000000E+00
  0.00000000E+00
Coordinates of each shell                  R   N=          60
 -3.46290235E+00 -2.71600888E-01  0.00000000E+00 -3.46290235E+00 -2.71600888E-01
  0.00000000E+00 -3.46290235E+00 -2.71600888E-01  0.00000000E+00  3.37008089E+00
  2.77906905E-01  0.00000000E+00  3.37008089E+00  2.77906905E-01  0.00000000E+00
  3.37008089E+00  2.77906905E-01  0.00000000E+00  1.06741370E+00 -8.40312078E-01
  0.00000000E+00  1.06741370E+00 -8.40312078E-01  0.00000000E+00  1.06741370E+00
 -8.40312078E-01  0.00000000E+00 -1.28272720E+00  6.63906144E-01  0.00000000E+00
 -1.28272720E+00  6.63906144E-01  0.00000000E+00 -1.28272720E+00  6.63906144E-01
  0.00000000E+00 -1.00312521E+00  2.75732208E+00  0.00000000E+00 -1.00312521E+00
  2.75732208E+00  0.00000000E+00  8.47043283E-01 -2.89688213E+00  0.00000000E+00
  8.47043283E-01 -2.89688213E+00  0.00000000E+00  5.12707833E+00 -8.05142385E-01
  0.00000000E+00  5.12707833E+00 -8.05142385E-01  0.00000000E+00  3.56078828E+00
  2.33957166E+00  0.00000000E+00  3.56078828E+00  2.33957166E+00  0.00000000E+00
Constraint Structure                       R   N=          24
 -3.46290235E+00 -2.71600888E-01  0.00000000E+00  3.37008089E+00  2.77906905E-01
  0.00000000E+00  1.06741370E+00 -8.40312078E-01  0.00000000E+00 -1.28272720E+00
  6.63906144E-01  0.00000000E+00 -1.00312521E+00  2.75732208E+00  0.00000000E+00
  8.47043283E-01 -2.89688213E+00  0.00000000E+00  5.12707833E+00 -8.05142385E-01
  0.00000000E+00  3.56078828E+00  2.33957166E+00  0.00000000E+00
Num ILSW                                   I              100
ILSW                                       I   N=         100
           0           1           0           0           2           0
           0           0           0           0         402          -1
           0           0           0           0           2           0
           0           0           0           0           1           0
           1           1           0           0           0           0
           0           0      100000           0          -1           0
           0           0           0           0           0           0
           0           0           0           1           0           0
           0           0           1           0           0           0
           0           0           4          40           0           0
           0           0           0           0           0           0
           0           0           0           0           0           0
           0           0           0           0           0           0
           0           0           0           0           0           0
           0           0           0           0           0           0
           0           0           0           0           0           0
           0           0           0           0
Num RLSW                                   I               40
RLSW                                       R   N=          40
  1.00000000E+00  1.00000000E+00  1.00000000E+00  1.00000000E+00  0.00000000E+00
  0.00000000E+00  0.00000000E+00  1.00000000E+00  0.00000000E+00  0.00000000E+00
  0.00000000E+00  0.00000000E+00  1.00000000E+00  0.00000000E+00  0.00000000E+00
  0.00000000E+00  0.00000000E+00  1.00000000E+00  0.00000000E+00  0.00000000E+00
  0.00000000E+00  0.00000000E+00  1.00000000E+00  0.00000000E+00  0.00000000E+00
  0.00000000E+00  0.00000000E+00  1.00000000E+00  0.00000000E+00  0.00000000E+00
  0.00000000E+00  0.00000000E+00  1.00000000E+00  0.00000000E+00  0.00000000E+00
  0.00000000E+00  0.00000000E+00  0.00000000E+00  1.00000000E+00  1.00000000E+00
MxBond                                     I                3
NBond                                      I   N=           8
           1           3           3           3           1           1
           1           1
IBond                                      I   N=          24
           4           0           0           3           7           8
           2           4           6           1           3           5
           4           0           0           3           0           0
           2           0           0           2           0           0
RBond                                      R   N=          24
  2.00000000E+00  0.00000000E+00  0.00000000E+00  2.00000000E+00  1.00000000E+00
  1.00000000E+00  2.00000000E+00  1.00000000E+00  1.00000000E+00  2.00000000E+00
  1.00000000E+00  1.00000000E+00  1.00000000E+00  0.00000000E+00  0.00000000E+00
  1.00000000E+00  0.00000000E+00  0.00000000E+00  1.00000000E+00  0.00000000E+00
  0.00000000E+00  1.00000000E+00  0.00000000E+00  0.00000000E+00
Virial Ratio                               R      2.005952061064591E+00
SCF Energy                                 R     -1.917974411864188E+02
Total Energy                               R     -1.917974411864188E+02
RMS Force                                  R      2.228705848570753E-05
RMS Density                                R      5.578933730613663E-09
External E-field                           R   N=          35
  0.00000000E+00  0.00000000E+00  0.00000000E+00  0.00000000E+00  0.00000000E+00
  0.00000000E+00  0.00000000E+00  0.00000000E+00  0.00000000E+00  0.00000000E+00
  0.00000000E+00  0.00000000E+00  0.00000000E+00  0.00000000E+00  0.00000000E+00
  0.00000000E+00  0.00000000E+00  0.00000000E+00  0.00000000E+00  0.00000000E+00
  0.00000000E+00  0.00000000E+00  0.00000000E+00  0.00000000E+00  0.00000000E+00
  0.00000000E+00  0.00000000E+00  0.00000000E+00  0.00000000E+00  0.00000000E+00
  0.00000000E+00  0.00000000E+00  0.00000000E+00  0.00000000E+00  0.00000000E+00
IOpCl                                      I                0
IROHF                                      I                0
Alpha Orbital Energies                     R   N=          44
 -1.87966528E+01 -1.00114030E+01 -9.95612844E+00 -9.94900989E+00 -9.44158946E-01
 -7.23244392E-01 -5.82771993E-01 -5.11892784E-01 -4.21545156E-01 -4.17129817E-01
 -3.52146544E-01 -3.44944971E-01 -3.44516837E-01 -2.54523764E-01 -2.01103015E-01
 -9.86087346E-02  1.49346001E-02  7.75117320E-02  8.29308561E-02  1.21133350E-01
  1.53640509E-01  2.26253439E-01  2.71216013E-01  3.16445846E-01  4.65281469E-01
  4.91847509E-01  5.42037157E-01  5.46053305E-01  5.88619180E-01  5.99627188E-01
  6.10804781E-01  6.32362473E-01  7.67795078E-01  7.92702526E-01  8.31122221E-01
  8.72908073E-01  8.83175596E-01  9.24088291E-01  9.44377339E-01  1.03919387E+00
  1.08963441E+00  1.12202909E+00  1.26009906E+00  1.70522168E+00
Alpha MO coefficients                      R   N=        1936
  9.95020691E-01  3.08637797E-02  2.20885543E-03  9.07661838E-04 -2.05588632E-16
 -2.31804460E-02 -6.75137720E-03 -2.35117148E-03  2.19896927E-16 -3.81178767E-05
 -4.66116509E-04  3.95328163E-04 -1.18692461E-04 -7.90748126E-17 -1.77150119E-03
 -1.13010310E-03  1.56001449E-03  1.75214234E-18  3.82854741E-05  1.66907902E-04
  6.75393097E-05 -1.89426388E-04  3.71647528E-17 -1.94328894E-03  3.64903025E-03
  2.32641768E-03 -2.00293165E-16  1.83142642E-04 -9.59858719E-05  6.59963305E-05
  3.14989066E-04  1.25442332E-17  1.15933801E-02 -8.03470579E-03 -7.04164338E-03
  1.32791625E-16  1.54061988E-04  1.93203425E-03  3.85015415E-04  1.43674161E-03
  2.22470012E-04  1.18243376E-03 -3.00221591E-04 -1.63632800E-04 -1.16666619E-05
 -1.65466244E-04 -7.25544058E-04 -2.33443541E-04  4.53997111E-16 -1.26299808E-03
 -1.60460155E-03 -1.27486910E-03 -1.16335228E-15 -2.35373562E-04 -6.06501465E-04
  4.14451824E-04 -6.16730564E-05  5.52072119E-16 -2.93319191E-04 -9.61433829E-04
  2.63103711E-04 -4.36816476E-16  4.60089063E-04 -1.86833965E-03  9.04678420E-04
 -7.08899315E-04  1.40658967E-16  8.89741532E-03 -3.58804483E-03  4.18183550E-03
 -3.34590197E-16  9.94913058E-01  3.65959630E-02 -7.13203358E-04 -3.65586091E-04
 -5.92040517E-16 -2.36440252E-02 -6.28122655E-03 -3.40502922E-04  7.34232345E-16
 -9.77544567E-04  5.44941655E-03 -1.61236689E-04  1.24294053E-03  8.30447379E-05
  9.80365216E-04 -1.42821517E-04 -7.24809730E-05 -2.12193417E-05 -3.83208033E-04
 -2.78350643E-05  2.83567755E-05  1.38288316E-16  1.54868850E-03  6.01122753E-04
 -2.37703842E-05 -2.72804848E-16  9.94446685E-01  3.71852301E-02 -2.09178031E-04
 -1.41204834E-05 -3.45392250E-17 -2.96876151E-02  2.74485406E-03  1.03678443E-03
  9.30287070E-16  3.09994741E-02 -1.23477522E-03 -1.36994570E-03 -6.73627970E-04
 -1.25453233E-17  1.00211026E-02  4.65022192E-03  1.90839185E-03 -6.78271038E-17
  1.24205485E-04 -6.04593720E-04 -1.42108052E-04  2.77624823E-05  6.09368263E-16
  2.60817574E-04  1.17797479E-03  7.24132577E-04 -8.20371370E-16 -1.85498730E-04
 -4.56073671E-04 -3.87473374E-04  2.58111560E-04 -1.21249378E-03  5.11447286E-03
 -1.14615059E-03  5.33013352E-03 -3.41845440E-07 -2.82535757E-05  8.60509948E-06
 -6.22679076E-05  2.42653938E-16 -3.40396054E-04 -5.63254035E-04  3.52606643E-04
 -4.83063858E-16 -3.12445961E-02 -3.70159684E-03  1.25697195E-03  5.57946395E-04
  5.21824175E-16  1.45691945E-02 -6.59595698E-03 -6.08993912E-04 -7.45624174E-16
  9.94543933E-01  3.83805057E-02  2.89997275E-04  5.40062393E-04  1.05646539E-16
 -3.70828043E-02 -7.10301788E-04 -6.48571422E-03  1.30336647E-16 -5.13093540E-04
 -2.01404726E-03 -7.92796077E-04  5.24033119E-04 -1.83761493E-16  1.19294024E-02
  5.23362542E-03 -2.43184203E-03  3.42895694E-16 -4.00602778E-04 -3.73347105E-04
 -1.28140648E-03  3.64063288E-03 -1.00396458E-04  6.81969788E-04 -5.12671246E-04
 -1.15766076E-03 -1.91945753E-01  4.24921013E-01  1.72959041E-01  7.19753892E-02
 -1.25907803E-16  4.15260190E-01  6.79174397E-02  2.45671064E-02  1.22698431E-16
 -3.57067802E-03  1.04364689E-02 -7.31714479E-03 -3.31481996E-04  1.15926403E-16
  1.12461037E-02  1.01980095E-02 -1.48960107E-02 -5.70605038E-17 -2.02198791E-02
  3.79933909E-02 -2.57072274E-02  9.28125627E-03 -1.78890811E-16  2.31359065E-02
 -2.41728418E-02 -3.60265253E-03 -2.15077496E-16 -1.14920650E-01  2.33651730E-01
 -1.66467897E-01 -7.95263390E-02  8.73684260E-17  4.70740324E-02  3.98071822E-02
  3.70648381E-02  1.13851865E-16  2.67101041E-02 -1.49727989E-02  6.58348097E-03
  8.05499807E-04 -5.43879420E-04 -1.06036398E-02  3.59326234E-03  4.38949053E-03
  3.93632310E-02 -9.19695327E-02 -7.91419234E-03 -1.64808769E-02 -1.81493075E-15
 -8.50694518E-02 -5.30104176E-04 -1.12895918E-03 -4.28677786E-16 -1.42094499E-01
  2.78488581E-01 -9.78171340E-02 -3.69679713E-02  1.25525730E-17  2.09709811E-01
 -1.67211176E-02  6.04254743E-03  1.25831690E-16 -1.59630454E-01  3.17959367E-01
  5.96724752E-02  6.84760571E-02  2.73355140E-16  1.94276856E-01  3.28589061E-03
 -1.56853062E-02 -8.21699132E-17 -5.37268769E-02  1.07262663E-01  1.35926062E-01
 -1.33755037E-02  2.20866014E-16  9.06992994E-02  3.82370804E-02  2.29027701E-03
 -5.51392938E-16  3.44562169E-02  7.41565019E-03  7.64091789E-02  5.02833745E-03
  7.05470079E-02  1.83837713E-02  7.44526940E-02  1.18368828E-02 -6.41961513E-02
  1.48483294E-01 -3.58957683E-02  5.55098378E-03 -1.86828385E-15  1.87728220E-01
 -1.47695385E-02  3.88180108E-03 -9.45546311E-16 -1.34852090E-01  2.74535457E-01
  7.79887683E-02 -3.87836836E-03  4.34483126E-16  2.49024393E-01  3.63655451E-02
 -5.81693272E-03 -4.50658134E-16  5.92061849E-02 -1.22858026E-01  2.18109233E-01
 -2.39855523E-02 -4.83088316E-16 -1.03045009E-01  3.77454927E-02  5.04964141E-03
  1.13521649E-16  1.12218014E-01 -2.40709490E-01 -1.75113829E-01 -4.32547259E-06
 -5.85071895E-17 -2.19905549E-01 -3.99638080E-02 -3.89683148E-03  4.96194850E-16
 -9.71569832E-02 -3.08505840E-02 -4.73896039E-02 -9.51588007E-03  1.36159188E-01
  4.84002317E-02  1.10737490E-01  4.14343248E-02  3.62473052E-02 -8.50174749E-02
  1.50263058E-02  9.05667615E-02  1.19198132E-15 -9.95633002E-02  1.11178469E-02
  4.24422633E-02  8.26387789E-16 -4.39242903E-02  8.79163979E-02  7.37508205E-02
  1.55825956E-01 -1.59540856E-17  9.52242385E-02  9.62434692E-03  5.27387372E-02
 -8.57201350E-16  9.38290275E-02 -1.93212763E-01 -2.25702746E-02  1.99955201E-01
 -6.22918239E-16 -2.00076407E-01  1.72914881E-03  5.54272146E-02  6.79107083E-16
 -8.65825176E-02  1.87033342E-01  1.98556263E-02  2.24586844E-01  6.28033405E-16
  1.82680620E-01  2.97249116E-02  7.79529114E-02  1.45531500E-15  1.79809629E-01
  9.22834605E-02 -1.75844236E-01 -9.27679469E-02  3.48695613E-02  2.13808233E-02
  1.20469249E-01  6.92128982E-02  5.87378975E-03 -1.09705056E-02 -5.44780749E-02
  1.70195487E-01 -2.64482627E-15 -3.04035565E-02 -3.25026226E-02  8.35338950E-02
 -2.05063906E-15  9.33464661E-03 -1.90066962E-02 -8.58615670E-02 -2.95618031E-01
 -1.21905201E-15 -5.58093850E-02 -1.74046003E-02 -1.04603673E-01 -3.94616863E-16
 -1.18186546E-02  2.09050035E-02  2.62421956E-01 -9.78091088E-02 -2.36793125E-15
  3.90688504E-02  9.07575873E-02 -2.58626267E-02 -2.13934663E-15 -7.76582798E-03
  1.65479642E-02 -1.37768483E-01  3.16678219E-01 -2.40336340E-15  3.30064821E-02
 -5.35628982E-02  1.17244443E-01 -1.20947167E-15  1.59523701E-01  1.01254754E-01
  4.98351576E-02  3.35850265E-02  3.32939965E-02  2.50232675E-02 -1.82422725E-01
 -1.23951562E-01  5.98721926E-02 -1.28699937E-01  1.71816483E-01  4.81753179E-02
 -2.85727021E-16 -2.54092309E-01  6.84228530E-02  1.42107547E-02  8.56481678E-16
 -4.15516406E-03  1.02859330E-02  3.88956354E-01 -7.32011546E-02 -1.05167606E-16
 -9.38525519E-03  1.41162653E-01 -2.49338441E-02 -5.00120272E-16  2.90334233E-02
 -6.23385541E-02 -1.95863155E-01 -2.32619436E-01 -3.22475939E-16 -3.72053601E-02
 -1.24882440E-02 -6.56817700E-02 -1.58566542E-16 -5.38337357E-02  1.31729951E-01
 -7.03071017E-02 -4.86275414E-02  2.28908358E-15  1.51373783E-01 -2.67465150E-02
 -4.16826493E-02  1.13719480E-15  3.38134747E-02  2.04319262E-02  1.09747413E-01
  8.56233215E-02  2.24470005E-01  1.67156325E-01 -1.15203348E-02 -5.06661050E-03
  7.47675031E-02 -1.58886567E-01  4.36378665E-01  1.31061327E-01 -1.01543970E-14
 -2.67174729E-01  2.31601054E-01  7.18008555E-02 -6.09782480E-15 -2.03933450E-02
  4.89060938E-02 -1.65886558E-01 -8.74251800E-02 -2.24822752E-15  1.03217451E-01
 -5.62660535E-02 -4.22716739E-02  3.80298837E-16  5.64027137E-03 -4.41736538E-03
  1.48752603E-01  1.47910269E-01 -3.36394775E-15 -6.13626014E-02  1.07265985E-02
 -1.06659155E-02 -2.18344574E-15 -2.84909405E-02  9.18602294E-02 -2.56238248E-01
 -2.12284301E-01 -9.59096551E-15  2.68227513E-02  1.89960762E-02 -1.45077738E-02
 -4.93323676E-15 -1.21593413E-01 -1.43412989E-01 -1.25206231E-01 -1.43217929E-01
 -3.87161997E-02 -5.35603290E-02 -5.32328462E-02 -6.55598189E-02  1.13313103E-14
 -2.34590969E-14  4.47448156E-14  6.68649460E-14  4.17271722E-01 -4.71663950E-14
  2.23088657E-14  3.44556343E-14  2.44620187E-01  1.92278832E-15 -2.61093749E-15
 -3.81882617E-14  1.01715178E-13  1.08382541E-01 -1.19086745E-14 -8.36843225E-15
  3.18643717E-14  6.03581063E-02 -4.03923598E-15  4.78030975E-15  2.38174106E-14
 -9.62333401E-14  2.02791485E-01  2.85284572E-14  3.10510070E-15 -2.84855711E-14
  1.06292946E-01  6.17949574E-15 -9.71349772E-15 -9.03501553E-14  3.31342999E-14
  3.82203674E-01 -3.64073159E-14 -3.02259118E-14  2.22602682E-14  2.23666436E-01
  1.12362236E-14  1.31604484E-14  7.11890929E-14  5.95371653E-14 -6.62812638E-14
 -6.15910280E-14  7.19373704E-14  7.27204843E-14  2.73020953E-02 -5.81291392E-02
  9.82594902E-02  1.78959840E-01 -1.49479543E-13 -1.09107998E-01  5.03776876E-02
  9.24182674E-02 -8.76695118E-14  6.35950926E-03 -1.18369207E-02 -9.13588552E-02
  2.96444652E-01 -3.81402424E-14 -2.18168581E-02 -2.14094370E-02  9.03648194E-02
 -2.01724578E-14 -1.04062816E-02  1.41797444E-02  4.97966260E-02 -2.75508987E-01
 -7.28080189E-14  6.67208065E-02  1.65786251E-04 -8.13019752E-02 -3.80868501E-14
  1.80171160E-02 -3.11356230E-02 -2.33789692E-01  1.01274421E-01 -1.37715987E-13
 -1.00955359E-01 -7.78454596E-02  6.73024773E-02 -7.94681554E-14  3.41044293E-02
  3.95590125E-02  2.06804170E-01  1.76579682E-01 -1.82355215E-01 -1.71957495E-01
  2.08146235E-01  2.02946822E-01 -1.34465052E-16  6.55549809E-16 -3.04353568E-16
 -2.18087243E-15 -3.12905207E-01 -9.48542755E-16  2.26603868E-16 -1.77817883E-15
 -2.17861715E-01  9.86526422E-17 -3.81344831E-16 -6.39420395E-17  7.38029220E-17
  3.81510528E-01 -9.91131302E-16  1.11520520E-15  1.25631484E-17  2.68088913E-01
  1.26914387E-16 -8.40346636E-16  5.29938974E-16 -7.16455457E-16  3.55710261E-01
  1.07864386E-15  2.75072917E-16  2.57415378E-15  2.35826351E-01 -6.96823148E-17
 -2.04823486E-16  9.10087544E-16  8.78973487E-16 -5.20907969E-02 -8.59787773E-16
 -2.06320454E-15 -4.68833903E-16 -4.17090076E-02  9.70288799E-16  2.48502457E-15
  4.50538759E-16  2.07007979E-15 -2.42227714E-16  2.87721046E-16 -2.25173587E-16
 -1.26531014E-15 -9.59706448E-04  6.88161062E-03 -2.38573492E-01  5.57572555E-01
 -6.36866395E-16 -2.61205676E-02 -1.66610333E-01  3.76382443E-01  2.63703257E-16
  7.64875126E-03 -9.08211704E-03  5.77359165E-02  2.44379983E-02  1.17263621E-15
 -1.23360366E-01  1.06586907E-01  2.66041315E-02  1.09794495E-15 -4.12660421E-02
  7.12791513E-02 -1.80580865E-01  9.59794661E-02  1.04559294E-15  4.29876499E-01
 -8.65793105E-02  1.51693111E-01  1.04404982E-15  1.48504751E-03  1.65323966E-02
  4.44343905E-02 -1.01159848E-01  1.14425064E-16 -7.51947694E-02 -1.29186120E-01
  1.01974929E-01 -2.12823609E-16 -1.72947049E-01 -2.95214709E-01 -2.53875089E-02
 -6.65224729E-02  3.42570554E-02  3.44878718E-02 -1.23885398E-02 -3.72745316E-02
  1.36283880E-17  8.24152540E-17  4.67267902E-16 -4.49957054E-17  3.78431699E-01
 -9.29396937E-16  1.90796578E-16 -2.45163338E-16  3.30676500E-01 -1.68502797E-17
  1.00434251E-15  9.20789242E-16  3.45107757E-16  3.84840717E-01 -6.14246513E-15
  2.26012942E-15 -1.86114832E-15  4.08078485E-01 -9.11089148E-17 -1.41826798E-16
  3.49363030E-16 -2.69730065E-16 -1.98972338E-01  2.22589911E-15  2.64896593E-15
  2.98086440E-15 -2.31814429E-01 -8.58879975E-17 -1.10413868E-15  4.15446547E-16
  8.78904884E-16 -3.64047876E-01  2.95814046E-15 -7.48847574E-16 -1.78531541E-16
 -2.97750749E-01  7.68099942E-17 -1.74332150E-15 -9.66945674E-17  1.22353213E-15
  8.50708176E-16 -1.07539889E-15 -7.64583867E-17  3.30538792E-15  1.80368803E-18
 -2.56013541E-17  2.49710615E-17  1.91557244E-16  2.44529938E-01  2.93089317E-16
  9.11698090E-19  5.28119197E-16  2.76442784E-01 -7.70563776E-17  2.25747518E-18
  1.68239948E-16 -3.54281748E-16 -2.56638559E-01  1.41014281E-15 -7.93174734E-16
  1.14808713E-15 -4.44588545E-01  1.28200819E-16 -6.94769461E-16  7.76086712E-17
 -1.36469523E-16  4.54865419E-01 -1.66175393E-15  8.42665272E-16 -1.20193507E-15
  6.33872838E-01 -9.21701311E-17 -2.96580605E-17  5.80083456E-16 -2.60295601E-16
 -4.19027778E-01  1.82700736E-15  1.17843186E-15 -2.71229367E-16 -5.15372313E-01
  2.19933403E-16 -7.22868798E-16  1.14531918E-16  1.39375743E-16  8.91590033E-17
  7.02551130E-17 -2.13607017E-16 -1.48101417E-15  1.40250076E-02 -3.36007477E-02
 -5.22061609E-02 -9.03405432E-02 -1.75195198E-16 -1.51533592E-01 -5.75590929E-02
 -1.60716709E-01 -5.95831594E-16 -1.14911069E-01  1.89588092E-01  1.74653246E-01
  1.28959433E-01  7.95386862E-17  1.69991031E+00  4.69377222E-01  3.00379132E-01
 -3.70182002E-17  1.37233453E-02 -3.67613748E-02 -1.01690727E-03 -5.93782706E-02
 -1.79713562E-16  1.24136500E-01 -1.94995560E-01 -1.21601185E-01 -1.54268074E-16
 -5.33597280E-02  9.37029892E-02 -7.35173981E-03  1.84142627E-01  2.11931938E-16
  6.40295272E-01 -1.50195959E-01  4.46911115E-01  7.32488278E-16 -1.39452129E-02
 -8.22926738E-01  2.57832041E-02 -6.86714429E-02 -9.13404112E-02 -1.12037378E+00
 -6.26150992E-02 -1.22058181E+00 -8.61291545E-03  1.32087876E-02  5.69913550E-02
 -4.07937261E-03 -1.97969294E-16  1.34970162E-01  9.10361229E-02 -2.93766595E-02
  1.77852470E-16  1.93072396E-02 -3.65072769E-02 -1.58691175E-01  2.17763407E-01
 -4.15210920E-16 -3.48866432E-01 -4.02667815E-01  4.70309126E-01 -5.07142609E-16
  6.44675968E-02 -1.04324728E-01  3.47656592E-02  2.53235710E-01  2.65260650E-16
 -1.00307003E+00  1.88482210E-01  4.68947272E-01  7.32212323E-16 -2.19638990E-02
  2.16440688E-02  2.46721913E-02  1.69860010E-01  2.34178585E-16  4.20994453E-01
  1.86573411E-01  2.56338844E-01 -6.83212517E-16 -6.37892826E-02 -6.83207796E-01
  1.31916924E-01  1.33716975E+00  7.28683541E-02  1.02091721E+00 -4.58741985E-02
 -5.51572815E-01  6.55392828E-04 -1.17749265E-02 -4.69011943E-02 -7.54536769E-02
  1.70876503E-16  8.43166140E-02 -1.40995629E-02 -8.26693140E-02  7.90597499E-16
  6.04539116E-02 -9.57638390E-02  3.63260200E-02 -1.83924918E-01  1.41594101E-16
 -9.80438992E-01  2.29053791E-01 -4.05001151E-01 -1.15874327E-15  1.15769306E-02
 -1.45341365E-02  1.78104689E-01 -1.04433841E-01  1.50823293E-16 -1.16879619E-01
  5.89838557E-01 -3.30302388E-01  7.82887936E-16 -1.09610750E-01  1.80591854E-01
  1.13802723E-01  2.09148212E-01  2.09434846E-16  1.61808218E+00  5.25868924E-01
  4.42838630E-01 -1.49691423E-15 -1.14544430E-01 -1.45836677E+00 -2.19233715E-02
 -2.63254926E-01 -5.03064986E-02 -1.80821175E-01  1.28094093E-01  1.12353696E+00
 -4.87237281E-03  1.26779093E-02  3.73499103E-02 -1.14684674E-01  1.90147485E-16
  7.44984805E-02  7.34453834E-02 -1.33005803E-01  6.24560728E-16  5.01266938E-02
 -8.03306061E-02 -1.28178671E-01  2.73872195E-01 -1.05161376E-15 -6.05683106E-01
 -3.17565749E-01  1.09299731E+00  2.17242299E-16 -1.01625381E-01  1.68810880E-01
 -5.66890086E-03 -1.82719387E-01  8.42320032E-16  1.65051429E+00  2.50480526E-02
 -8.89759565E-01  6.36999416E-16  1.34619188E-02 -3.67610641E-02 -1.43485456E-01
  2.03906891E-01 -2.37343395E-16  1.32743820E-01 -5.06879620E-02  5.13282709E-01
 -6.18713171E-16  2.37806044E-02 -5.27812293E-01 -2.78340109E-02 -1.58450270E+00
  4.68819172E-02  1.35338790E+00 -1.53573614E-03 -8.32468158E-01 -1.02862389E-01
  1.91158349E-01  2.40787191E-01  1.20072848E-01 -7.75818397E-17  1.77670778E+00
  7.61131039E-01  3.88054572E-01 -6.56246565E-16  2.09000506E-03 -5.78458050E-02
  2.42068235E-01  2.20473237E-02 -1.05580206E-16  4.38644263E-01  1.09689116E-01
  2.13686916E-01  1.00404302E-15 -2.14845957E-02  1.07795840E-01 -6.14997462E-02
 -2.07030170E-02 -6.70289357E-16 -3.11833166E-01  2.57106920E-01 -6.56939827E-01
 -1.42633089E-15  6.20578177E-02 -2.69983166E-02  2.14719286E-01  8.38564868E-02