acrolein test BLYP opt S0                                               
Freq      UBLYP                                                       6-31G               
Number of atoms                            I                8
Info1-9                                    I   N=           9
          18          18           0           0           0         101
           6          18         202
Charge                                     I                0
Multiplicity                               I                3
Number of electrons                        I               30
Number of alpha electrons                  I               16
Number of beta electrons                   I               14
Number of basis functions                  I               44
Number of independent functions            I               44
Number of point charges in /Mol/           I                0
Number of translation vectors              I                0
Atomic numbers                             I   N=           8
           8           6           6           6           1           1
           1           1
Nuclear charges                            R   N=           8
  8.00000000E+00  6.00000000E+00  6.00000000E+00  6.00000000E+00  1.00000000E+00
  1.00000000E+00  1.00000000E+00  1.00000000E+00
Current cartesian coordinates              R   N=          24
 -3.59092374E+00 -3.16181418E-01  6.42506885E-05  3.45907566E+00  3.02475234E-01
  1.13383568E-05  1.05236959E+00 -7.58073087E-01 -3.77945227E-05 -1.22145094E+00
  6.40896839E-01 -9.44863066E-05 -1.22170983E+00  2.72819195E+00  2.45664397E-05
  8.50533607E-01 -2.81751363E+00  5.66917840E-06  5.13306121E+00 -8.99921600E-01
  2.26767136E-05  3.76269417E+00  2.34489691E+00  7.55890453E-06
Force Field                                I                0
Int Atom Types                             I   N=           8
           0           0           0           0           0           0
           0           0
MM charges                                 R   N=           8
  0.00000000E+00  0.00000000E+00  0.00000000E+00  0.00000000E+00  0.00000000E+00
  0.00000000E+00  0.00000000E+00  0.00000000E+00
Integer atomic weights                     I   N=           8
          16          12          12          12           1           1
           1           1
Real atomic weights                        R   N=           8
  1.59949146E+01  1.20000000E+01  1.20000000E+01  1.20000000E+01  1.00782504E+00
  1.00782504E+00  1.00782504E+00  1.00782504E+00
Atom fragment info                         I   N=           8
           0           0           0           0           0           0
           0           0
Atom residue num                           I   N=           8
           0           0           0           0           0           0
           0           0
Nuclear spins                              I   N=           8
           0           0           0           0           1           1
           1           1
Nuclear ZEff                               R   N=           8
 -5.60000000E+00 -3.60000000E+00 -3.60000000E+00 -3.60000000E+00 -1.00000000E+00
 -1.00000000E+00 -1.00000000E+00 -1.00000000E+00
Nuclear QMom                               R   N=           8
  0.00000000E+00  0.00000000E+00  0.00000000E+00  0.00000000E+00  0.00000000E+00
  0.00000000E+00  0.00000000E+00  0.00000000E+00
Nuclear GFac                               R   N=           8
  0.00000000E+00  0.00000000E+00  0.00000000E+00  0.00000000E+00  2.79284600E+00
  2.79284600E+00  2.79284600E+00  2.79284600E+00
MicOpt                                     I   N=           8
          -1          -1          -1          -1          -1          -1
          -1          -1
Number of contracted shells                I               20
Number of primitive shells                 I               56
Pure/Cartesian d shells                    I                1
Pure/Cartesian f shells                    I                0
Highest angular momentum                   I                1
Largest degree of contraction              I                6
Shell types                                I   N=          20
           0          -1          -1           0          -1          -1
           0          -1          -1           0          -1          -1
           0           0           0           0           0           0
           0           0
Number of primitives per shell             I   N=          20
           6           3           1           6           3           1
           6           3           1           6           3           1
           3           1           3           1           3           1
           3           1
Shell to atom map                          I   N=          20
           1           1           1           2           2           2
           3           3           3           4           4           4
           5           5           6           6           7           7
           8           8
Primitive exponents                        R   N=          56
  5.48467166E+03  8.25234946E+02  1.88046958E+02  5.29645000E+01  1.68975704E+01
  5.79963534E+00  1.55396162E+01  3.59993359E+00  1.01376175E+00  2.70005823E-01
  3.04752488E+03  4.57369518E+02  1.03948685E+02  2.92101553E+01  9.28666296E+00
  3.16392696E+00  7.86827235E+00  1.88128854E+00  5.44249258E-01  1.68714478E-01
  3.04752488E+03  4.57369518E+02  1.03948685E+02  2.92101553E+01  9.28666296E+00
  3.16392696E+00  7.86827235E+00  1.88128854E+00  5.44249258E-01  1.68714478E-01
  3.04752488E+03  4.57369518E+02  1.03948685E+02  2.92101553E+01  9.28666296E+00
  3.16392696E+00  7.86827235E+00  1.88128854E+00  5.44249258E-01  1.68714478E-01
  1.87311370E+01  2.82539436E+00  6.40121692E-01  1.61277759E-01  1.87311370E+01
  2.82539436E+00  6.40121692E-01  1.61277759E-01  1.87311370E+01  2.82539436E+00
  6.40121692E-01  1.61277759E-01  1.87311370E+01  2.82539436E+00  6.40121692E-01
  1.61277759E-01
Contraction coefficients                   R   N=          56
  1.83107443E-03  1.39501722E-02  6.84450781E-02  2.32714336E-01  4.70192898E-01
  3.58520853E-01 -1.10777550E-01 -1.48026263E-01  1.13076702E+00  1.00000000E+00
  1.83473713E-03  1.40373228E-02  6.88426223E-02  2.32184443E-01  4.67941348E-01
  3.62311985E-01 -1.19332420E-01 -1.60854152E-01  1.14345644E+00  1.00000000E+00
  1.83473713E-03  1.40373228E-02  6.88426223E-02  2.32184443E-01  4.67941348E-01
  3.62311985E-01 -1.19332420E-01 -1.60854152E-01  1.14345644E+00  1.00000000E+00
  1.83473713E-03  1.40373228E-02  6.88426223E-02  2.32184443E-01  4.67941348E-01
  3.62311985E-01 -1.19332420E-01 -1.60854152E-01  1.14345644E+00  1.00000000E+00
  3.34946043E-02  2.34726953E-01  8.13757326E-01  1.00000000E+00  3.34946043E-02
  2.34726953E-01  8.13757326E-01  1.00000000E+00  3.34946043E-02  2.34726953E-01
  8.13757326E-01  1.00000000E+00  3.34946043E-02  2.34726953E-01  8.13757326E-01
  1.00000000E+00
P(S=P) Contraction coefficients            R   N=          56
  0.00000000E+00  0.00000000E+00  0.00000000E+00  0.00000000E+00  0.00000000E+00
  0.00000000E+00  7.08742682E-02  3.39752839E-01  7.27158577E-01  1.00000000E+00
  0.00000000E+00  0.00000000E+00  0.00000000E+00  0.00000000E+00  0.00000000E+00
  0.00000000E+00  6.89990666E-02  3.16423961E-01  7.44308291E-01  1.00000000E+00
  0.00000000E+00  0.00000000E+00  0.00000000E+00  0.00000000E+00  0.00000000E+00
  0.00000000E+00  6.89990666E-02  3.16423961E-01  7.44308291E-01  1.00000000E+00
  0.00000000E+00  0.00000000E+00  0.00000000E+00  0.00000000E+00  0.00000000E+00
  0.00000000E+00  6.89990666E-02  3.16423961E-01  7.44308291E-01  1.00000000E+00
  0.00000000E+00  0.00000000E+00  0.00000000E+00  0.00000000E+00  0.00000000E+00
  0.00000000E+00  0.00000000E+00  0.00000000E+00  0.00000000E+00  0.00000000E+00
  0.00000000E+00  0.00000000E+00  0.00000000E+00  0.00000000E+00  0.00000000E+00
  0.00000000E+00
Coordinates of each shell                  R   N=          60
 -3.59092374E+00 -3.16181418E-01  6.42506885E-05 -3.59092374E+00 -3.16181418E-01
  6.42506885E-05 -3.59092374E+00 -3.16181418E-01  6.42506885E-05  3.45907566E+00
  3.02475234E-01  1.13383568E-05  3.45907566E+00  3.02475234E-01  1.13383568E-05
  3.45907566E+00  3.02475234E-01  1.13383568E-05  1.05236959E+00 -7.58073087E-01
 -3.77945227E-05  1.05236959E+00 -7.58073087E-01 -3.77945227E-05  1.05236959E+00
 -7.58073087E-01 -3.77945227E-05 -1.22145094E+00  6.40896839E-01 -9.44863066E-05
 -1.22145094E+00  6.40896839E-01 -9.44863066E-05 -1.22145094E+00  6.40896839E-01
 -9.44863066E-05 -1.22170983E+00  2.72819195E+00  2.45664397E-05 -1.22170983E+00
  2.72819195E+00  2.45664397E-05  8.50533607E-01 -2.81751363E+00  5.66917840E-06
  8.50533607E-01 -2.81751363E+00  5.66917840E-06  5.13306121E+00 -8.99921600E-01
  2.26767136E-05  5.13306121E+00 -8.99921600E-01  2.26767136E-05  3.76269417E+00
  2.34489691E+00  7.55890453E-06  3.76269417E+00  2.34489691E+00  7.55890453E-06
Constraint Structure                       R   N=          24
 -3.59092374E+00 -3.16181418E-01  6.42506885E-05  3.45907566E+00  3.02475234E-01
  1.13383568E-05  1.05236959E+00 -7.58073087E-01 -3.77945227E-05 -1.22145094E+00
  6.40896839E-01 -9.44863066E-05 -1.22170983E+00  2.72819195E+00  2.45664397E-05
  8.50533607E-01 -2.81751363E+00  5.66917840E-06  5.13306121E+00 -8.99921600E-01
  2.26767136E-05  3.76269417E+00  2.34489691E+00  7.55890453E-06
Num ILSW                                   I              100
ILSW                                       I   N=         100
           1           1           0           0           2           0
           0           0           0           0         402          -1
           0           0           0           0           2           0
           0           0           0           0           1           0
           1           1           0           0           0           0
           0           0      100000           0          -1           0
           0           0           0           0           0           0
           0           0           0           1           0           0
           0           0           1           0           0           0
           0           0           4          40           0           0
           0           0           0           0           0           0
           0           0           0           0           0           0
           0           0           0           0           0           0
           0           0           0           0           0           0
           0           0           0           0           0           0
           0           0           0           0           0           0
           0           0           0           0
Num RLSW                                   I               40
RLSW                                       R   N=          40
  1.00000000E+00  1.00000000E+00  1.00000000E+00  1.00000000E+00  0.00000000E+00
  0.00000000E+00  0.00000000E+00  1.00000000E+00  0.00000000E+00  0.00000000E+00
  0.00000000E+00  0.00000000E+00  1.00000000E+00  0.00000000E+00  0.00000000E+00
  0.00000000E+00  0.00000000E+00  1.00000000E+00  0.00000000E+00  0.00000000E+00
  0.00000000E+00  0.00000000E+00  1.00000000E+00  0.00000000E+00  0.00000000E+00
  0.00000000E+00  0.00000000E+00  1.00000000E+00  0.00000000E+00  0.00000000E+00
  0.00000000E+00  0.00000000E+00  1.00000000E+00  0.00000000E+00  0.00000000E+00
  0.00000000E+00  0.00000000E+00  0.00000000E+00  1.00000000E+00  1.00000000E+00
MxBond                                     I                3
NBond                                      I   N=           8
           1           3           3           3           1           1
           1           1
IBond                                      I   N=          24
           4           0           0           3           7           8
           2           4           6           1           3           5
           4           0           0           3           0           0
           2           0           0           2           0           0
RBond                                      R   N=          24
  1.50000000E+00  0.00000000E+00  0.00000000E+00  1.50000000E+00  1.00000000E+00
  1.00000000E+00  1.50000000E+00  1.50000000E+00  1.00000000E+00  1.50000000E+00
  1.50000000E+00  1.00000000E+00  1.00000000E+00  0.00000000E+00  0.00000000E+00
  1.00000000E+00  0.00000000E+00  0.00000000E+00  1.00000000E+00  0.00000000E+00
  0.00000000E+00  1.00000000E+00  0.00000000E+00  0.00000000E+00
Virial Ratio                               R      2.005885072898694E+00
SCF Energy                                 R     -1.917009041120401E+02
Total Energy                               R     -1.917009041120401E+02
S**2                                       R      2.012064214713435E+00
S**2 after annihilation                    R      2.000038664752504E+00
RMS Force                                  R      3.695779751589674E-05
RMS Density                                R      1.203369090987782E-09
External E-field                           R   N=          35
  0.00000000E+00  0.00000000E+00  0.00000000E+00  0.00000000E+00  0.00000000E+00
  0.00000000E+00  0.00000000E+00  0.00000000E+00  0.00000000E+00  0.00000000E+00
  0.00000000E+00  0.00000000E+00  0.00000000E+00  0.00000000E+00  0.00000000E+00
  0.00000000E+00  0.00000000E+00  0.00000000E+00  0.00000000E+00  0.00000000E+00
  0.00000000E+00  0.00000000E+00  0.00000000E+00  0.00000000E+00  0.00000000E+00
  0.00000000E+00  0.00000000E+00  0.00000000E+00  0.00000000E+00  0.00000000E+00
  0.00000000E+00  0.00000000E+00  0.00000000E+00  0.00000000E+00  0.00000000E+00
IOpCl                                      I                1
IROHF                                      I                0
Alpha Orbital Energies                     R   N=          44
 -1.88865633E+01 -9.98987573E+00 -9.94220962E+00 -9.92036167E+00 -9.75632264E-01
 -7.09450131E-01 -5.91282312E-01 -5.20050861E-01 -4.28631190E-01 -4.27620291E-01
 -3.64797465E-01 -3.60757418E-01 -3.38973657E-01 -3.04552130E-01 -2.51014339E-01
 -1.29391150E-01  1.86095681E-02  8.07706536E-02  8.62145890E-02  1.19314868E-01
  1.62815378E-01  1.71799781E-01  2.73532037E-01  3.35774413E-01  4.74350802E-01
  4.96076487E-01  5.22461895E-01  5.47676860E-01  5.54356377E-01  6.00616858E-01
  6.06076976E-01  6.34341700E-01  7.75508520E-01  8.07224212E-01  8.18589353E-01
  8.64015515E-01  8.70401876E-01  8.96828353E-01  9.54729581E-01  9.65432079E-01
  1.07961900E+00  1.13049138E+00  1.26510318E+00  1.58731695E+00
Beta Orbital Energies                      R   N=          44
 -1.88628997E+01 -9.98338586E+00 -9.94277710E+00 -9.91338437E+00 -9.26977111E-01
 -6.97724135E-01 -5.68505693E-01 -5.04070454E-01 -4.12111496E-01 -4.06402428E-01
 -3.52388159E-01 -3.25742510E-01 -3.24919530E-01 -2.28880784E-01 -2.22084931E-01
 -8.18557018E-02  4.04721112E-02  8.59357195E-02  9.78305065E-02  1.27024688E-01
  1.71400063E-01  1.86556321E-01  2.80582458E-01  3.43444281E-01  4.97855639E-01
  5.04404213E-01  5.33869072E-01  5.67376955E-01  5.80816330E-01  6.10280814E-01
  6.15296925E-01  6.42087581E-01  7.86078100E-01  8.16038654E-01  8.33038826E-01
  8.71583233E-01  8.97664873E-01  9.02815875E-01  9.74477535E-01  1.01475738E+00
  1.09086534E+00  1.14287739E+00  1.27002063E+00  1.62570266E+00
Alpha MO coefficients                      R   N=        1936
  9.94922160E-01  3.08053677E-02  1.99988820E-03  8.06596663E-04 -1.23234338E-07
 -2.07557986E-02 -6.18520489E-03 -2.21936532E-03  4.57873746E-07 -2.37668488E-05
 -3.72322138E-04  4.01972439E-04 -1.03146885E-04  3.08103878E-08 -2.24278077E-03
 -4.73458930E-04  1.21185813E-03 -1.25516963E-08  2.87370341E-05  8.55106811E-05
  4.85853700E-05 -2.15873379E-04 -5.93880226E-09 -1.02716765E-03  3.51857314E-03
  3.06485095E-03 -1.09778477E-07  6.20500634E-05 -3.78370803E-04 -7.96563999E-05
  1.98639211E-04  2.62362302E-08  9.64733621E-03 -7.43121744E-03 -5.84590134E-03
  4.64621568E-07 -6.00248600E-05  1.51509186E-03  3.89511835E-04  1.72041001E-03
  1.70228470E-04  9.07335825E-04 -2.15492052E-04 -1.54329252E-05  7.84145858E-05
 -5.54256058E-05 -6.04359015E-04 -1.37204992E-04  1.52927821E-08 -1.70377373E-04
 -1.07096044E-03 -1.15960979E-03  2.44430844E-07 -1.76973949E-04 -5.26930056E-04
  3.95696630E-04 -4.62645228E-05  1.35419814E-08  4.24875106E-05 -8.68667458E-04
 -1.86318099E-04 -3.90704655E-08  2.11590369E-03 -2.14055325E-03  1.15062027E-03
 -8.10532356E-04  2.35454043E-08  1.03489253E-02 -4.84482035E-03  4.33039098E-03
 -7.23957476E-08  9.94834500E-01  3.69030468E-02 -6.37475557E-04 -1.97211726E-04
 -2.73748794E-08 -2.60684169E-02 -5.83138762E-03  5.55922370E-04 -3.51719381E-07
 -1.24563412E-03  5.26961080E-03 -1.97443444E-04  1.20399288E-03  3.37051989E-05
  7.85646882E-04 -1.01911786E-04  2.09311470E-04  1.61344891E-06 -5.83643054E-05
 -2.24602826E-05 -5.84971868E-05 -2.53810759E-09 -1.47032202E-04 -4.72081992E-04
  3.61880317E-04  1.46827171E-08  6.34080532E-03 -2.03429616E-03  1.09515951E-03
  4.18185050E-04  8.57928097E-08  1.16769398E-02 -5.76012192E-03 -3.30727764E-05
 -3.16027552E-07  9.95020993E-01  3.80968568E-02 -3.26863362E-04  4.95086822E-04
 -1.68179024E-06 -3.65895557E-02  8.54501272E-04 -5.91759724E-03  8.99865531E-07
 -2.25198678E-03 -2.45551601E-03 -1.03085036E-03  7.05742519E-04  2.90651305E-08
  1.34267534E-02  5.82966068E-03 -2.67689272E-03 -4.33000504E-08 -4.37459760E-04
 -2.17606538E-04 -1.23459720E-03  3.84282681E-03 -1.19182486E-04  7.54744228E-04
 -5.51936386E-04 -9.77138818E-04 -1.71949861E-05 -3.48325781E-04 -4.97987248E-05
  1.88190669E-05  1.12943689E-08  1.23839033E-03  5.69806716E-04 -2.99394016E-06
 -5.90307812E-08  9.94873307E-01  3.75070270E-02 -2.06971214E-04 -6.42769481E-05
  1.23646924E-07 -2.98031236E-02  2.71368865E-03  1.14903853E-03  4.23646968E-08
 -6.49237961E-03 -2.53595804E-03 -1.35410611E-03 -6.09510351E-04 -1.59605510E-08
  1.05874905E-02  4.75516966E-03  1.87667551E-03  1.13411108E-07  1.16252839E-04
 -4.62474435E-04 -1.42853763E-04  8.64656659E-06 -1.08645130E-08 -1.07811487E-05
  8.35374724E-04  4.64664920E-04 -2.02541907E-08 -1.15731144E-04 -2.47387692E-04
 -3.19780365E-04  1.05544187E-04 -1.22412007E-03  5.30118212E-03 -1.20404388E-03
  5.31719094E-03 -2.05812126E-01  4.67008710E-01  1.46031987E-01  5.90737982E-02
 -7.18655001E-06  4.71199121E-01  7.83798125E-02  2.78777717E-02 -4.92112228E-06
 -1.83008880E-03  6.09101028E-03 -5.27319492E-03  2.85458762E-04 -4.20293491E-07
  1.86728599E-02  4.59337162E-03 -1.71612513E-02  2.13662553E-06 -1.55109706E-02
  2.89277419E-02 -2.24447562E-02  7.29578184E-03 -3.34453349E-06  2.29606593E-02
 -3.61629080E-02 -7.25981946E-03 -4.69770098E-06 -9.21300300E-02  1.87143815E-01
 -1.32408138E-01 -5.54389052E-02  7.57403061E-06  8.00692126E-03  3.38249922E-02
  4.24303865E-02 -1.62909057E-06  2.66467920E-02 -1.04295766E-02  4.23827047E-03
 -2.02438210E-03 -1.19353655E-03 -9.91616908E-03  2.51883216E-03  4.79868146E-03
  4.71963772E-02 -1.12580087E-01  2.13132755E-02 -9.32731949E-03 -8.34995414E-06
 -1.22909043E-01  6.77920873E-03 -2.12092503E-03 -2.12184789E-06 -1.17528497E-01
  2.29251597E-01 -8.73745724E-02 -2.96044857E-02 -1.21692702E-06  1.82893368E-01
 -2.30324613E-02  8.47718252E-03  2.23161238E-06 -1.63214161E-01  3.29575743E-01
  4.43934201E-03  6.44703451E-02 -4.18999884E-05  1.77632477E-01  1.33900498E-03
 -2.71377572E-02 -1.40816461E-05 -8.91920093E-02  1.81116317E-01  1.40265358E-01
 -2.73981227E-02 -1.36383465E-05  1.57750250E-01  3.97790174E-02 -2.31464238E-03
 -8.38418029E-06  5.33967531E-02  1.11285921E-02  8.31624474E-02  6.13482263E-03
  5.61586452E-02  1.69409167E-02  5.78933883E-02  6.65551221E-03 -6.58027296E-02
  1.54308464E-01 -9.24801843E-02 -3.36694182E-02  8.61186706E-06  2.12781705E-01
 -3.44587738E-02 -9.59438309E-03  1.95340277E-06 -1.46174128E-01  2.93338144E-01
  2.03700583E-02 -2.24715465E-02  6.07661115E-06  2.59663950E-01  1.71504002E-02
 -1.17341260E-02 -3.27891786E-06  1.42714470E-02 -3.20883639E-02  2.28516247E-01
 -2.95785475E-02  3.04340022E-05 -2.23315380E-02  3.17545246E-02  5.49037433E-03
  1.39151115E-05  1.28114254E-01 -2.73908697E-01 -8.63366222E-02 -1.46980428E-02
  1.27332868E-05 -2.46523164E-01 -1.42828179E-02 -8.47343595E-03  6.23832044E-06
 -1.18401408E-01 -3.89749904E-02 -7.54277854E-03  6.81671055E-03  1.19381765E-01
  3.81823944E-02  1.02643308E-01  3.60690741E-02  3.32575068E-02 -7.72756430E-02
  2.67838076E-02  1.92093445E-01  1.19122750E-04 -1.10852462E-01  8.98507745E-03
  9.48919360E-02  6.42716437E-05 -6.44779023E-02  1.30223990E-01  6.84979521E-02
  8.03439641E-02  6.43740582E-06  1.19689367E-01  2.00462066E-02  2.49905130E-02
 -2.11017516E-06  9.23041928E-02 -1.91817274E-01  7.38841155E-02  1.41318119E-01
  3.96726303E-05 -1.55630834E-01  2.16356620E-02  4.49724655E-02  1.47621833E-05
 -6.63382112E-02  1.46408432E-01 -9.57419160E-02  2.69309799E-01  5.22851611E-05
  1.33387842E-01 -2.27727669E-02  1.00995759E-01  2.62881786E-05  1.98642268E-01
  9.98332259E-02 -1.49516060E-01 -7.91741283E-02  6.02416802E-02  2.81652111E-02
  9.62424868E-02  5.15413481E-02  3.09214769E-02 -7.02764683E-02  2.86826413E-01
 -2.00440952E-01 -4.18979173E-04 -1.02390101E-01  1.55284353E-01 -1.11508403E-01
 -2.38619824E-04 -3.43810911E-02  6.99073439E-02  1.80695259E-01  1.87235488E-01
 -2.00353734E-05  1.14990111E-01  4.46638821E-02  6.78127343E-02 -9.29171627E-06
  5.32308766E-02 -1.05988012E-01 -2.08547432E-01  9.11113658E-02 -6.28050915E-05
 -1.83380871E-01 -4.94895637E-02 -3.06218690E-03 -1.72529199E-05 -3.37488124E-02
  7.88829293E-02  5.66875825E-03 -2.71073204E-01 -1.74125930E-04  9.22400624E-02
  6.40235879E-02 -1.12232980E-01 -9.83818775E-05 -1.20360542E-01 -8.32832883E-02
 -9.73526748E-02 -6.76460825E-02  5.93435551E-02  3.68105487E-02  1.46846537E-01
  8.92384042E-02  6.24042755E-02 -1.34135889E-01  3.25811601E-01  2.03643129E-01
  8.91201648E-05 -2.52999079E-01  1.55516303E-01  1.01615593E-01  5.11248527E-05
 -7.33411680E-03  1.83715648E-02  1.34188047E-01 -1.67819212E-01  1.22015412E-05
  8.59536929E-03  6.11889694E-02 -7.27735008E-02  6.59659035E-06  7.00866978E-03
 -1.73224614E-02  5.74419789E-02 -2.59843945E-01  4.80478778E-05  1.32772000E-02
  1.85106813E-02 -7.33205175E-02  1.58974555E-05 -1.62480772E-02  5.29633319E-02
 -2.97153665E-01 -3.60421397E-02  6.82889981E-05  2.38557779E-02 -8.27289272E-02
 -3.28837095E-03  3.54079979E-05 -3.20199334E-03 -1.56936155E-02  1.31203252E-01
  9.27519309E-02  1.16564286E-01  7.11047687E-02 -6.69582565E-02 -4.29653303E-02
 -2.24671113E-02  4.84750759E-02 -2.82447421E-01 -1.33361337E-01 -6.12883232E-04
  4.65498256E-02 -1.73548210E-01 -8.37262525E-02 -3.62698689E-04  9.16206727E-03
 -2.41284468E-02  3.71491535E-01 -5.66777434E-02 -7.87567539E-05 -5.71568020E-02
  1.30317869E-01 -1.00863967E-02 -3.78355397E-05  2.23435289E-02 -5.07127482E-02
 -2.45938250E-01 -1.67455020E-01 -1.84783150E-04 -3.62561154E-02 -2.67228017E-02
 -2.44912139E-02 -7.96086876E-05 -1.90198357E-02  2.97666115E-02  1.90280098E-01
  1.06774246E-01 -4.10117909E-04  1.00299371E-01 -8.42896445E-03 -2.62078951E-02
 -2.39774778E-04  1.17614781E-01  1.22976074E-01  9.74767576E-02  1.07315583E-01
  2.01191261E-01  1.78325575E-01 -7.55329419E-03  1.80348320E-03 -2.29258629E-05
  5.12525791E-05 -6.14523265E-04  7.85745815E-04  5.19757647E-01  2.65425618E-05
 -3.72550003E-04  4.59744270E-04  3.10452339E-01  2.15908259E-05 -5.22140703E-05
  6.59737781E-04  6.55133506E-04  5.82229024E-02 -8.78194650E-05  2.47607143E-04
  2.22911141E-04  3.03167047E-02 -1.54744074E-05  1.94000510E-05 -8.98272871E-04
 -3.34853250E-04  1.40036605E-01  2.57680011E-04 -3.07067636E-04  2.86857894E-06
  5.86619365E-02  3.64887695E-06 -4.51993366E-07  3.63280440E-04 -3.53115099E-04
  3.31305224E-01 -1.13224041E-04 -1.05509590E-04 -7.21288512E-05  1.98767278E-01
 -2.36355799E-04 -1.87417390E-04  2.95666785E-04  2.60199753E-04  7.73303667E-05
  7.39061214E-05  4.48725583E-04  3.93535841E-04  1.22334026E-03 -1.57913514E-03
 -1.26908336E-01  3.26505823E-01 -9.02426565E-04 -1.92195194E-02 -7.92206905E-02
  1.91679072E-01 -5.44162549E-04  1.05617570E-02 -2.28603263E-02  2.81641258E-02
  3.47136393E-01 -1.88530061E-04 -4.09024297E-02  2.28425156E-02  1.04689057E-01
 -9.85581868E-05 -1.77283131E-02  2.78111103E-02 -1.33276405E-01 -2.05541112E-01
 -4.01446532E-04  1.53880130E-01 -8.67930712E-02 -1.25755395E-02 -1.92778886E-04
  2.41985152E-02 -4.89172482E-02 -5.05118620E-02 -1.47487322E-02 -7.74586170E-04
 -1.45723870E-01 -9.22370677E-02  3.66483877E-02 -4.77354262E-04 -4.16802225E-02
 -2.66552757E-02  1.78088593E-01  1.60486988E-01 -1.36322867E-01 -1.23372245E-01
  2.25432948E-01  2.16952089E-01 -1.84547257E-03  8.19664657E-03 -1.62137178E-01
  4.69306935E-01 -1.24981296E-04 -5.55361969E-03 -1.04980984E-01  2.98386073E-01
 -6.21903892E-05 -1.39752336E-03  7.90574733E-03  8.19384327E-02 -1.23155800E-01
 -2.77237151E-04 -3.41531540E-02  6.33453300E-02 -3.29752451E-02 -1.63553787E-04
 -2.01898903E-02  4.11588249E-02 -1.61664400E-01  2.04225892E-01 -4.82498579E-04
  1.81394612E-01 -4.84013181E-02  9.98128864E-02 -2.56186527E-04 -1.37856926E-02
  4.50652975E-02  1.25543486E-01 -2.22318963E-01 -5.55060498E-04  8.88751225E-03
 -2.49169423E-02 -1.05768206E-02 -3.51761755E-04 -1.94248276E-01 -2.33810828E-01
 -1.31850468E-01 -1.56072785E-01  1.09403081E-01  1.00718438E-01 -9.18770052E-02
 -1.04980143E-01 -6.16679562E-07  5.15776686E-06 -2.38385054E-04  5.18780290E-04
 -3.18122553E-01 -2.47577962E-05 -1.65934367E-04  3.42865633E-04 -2.26159329E-01
  2.81157489E-06 -1.16010656E-06  5.38438007E-05 -2.01306914E-05  3.44192624E-01
 -3.94360717E-05  4.06735239E-05  8.36775843E-06  2.32869822E-01 -2.83580843E-05
  6.20188161E-05 -1.86136285E-04  1.10509689E-04  3.74711705E-01  1.76260148E-04
 -5.51566882E-05  6.99737956E-05  2.40160370E-01 -1.41705444E-05  5.16729164E-05
  1.23162721E-04 -1.74436398E-04  1.34997691E-01  2.92367344E-05 -5.69002338E-05
  2.24087615E-05  7.47833497E-02 -1.68600587E-04 -2.33590535E-04 -3.86032147E-05
 -7.53341850E-05  5.12601919E-05  5.99432332E-05 -2.67153005E-05 -4.40652681E-05
 -1.16002201E-06  3.92489389E-06 -6.16163136E-05  1.39586036E-04 -3.17607916E-01
 -2.42906583E-07 -4.55977580E-05  1.05827536E-04 -2.60925543E-01  4.87051913E-06
 -1.25633063E-05  2.69301355E-05  8.85451490E-06 -4.10691730E-01 -4.48345860E-05
  3.28826893E-05  2.07210105E-05 -3.77906512E-01 -1.76159266E-05  4.14030250E-05
 -5.98512902E-05  3.48276696E-05  6.99636040E-02  1.59754994E-04 -3.11673674E-05
  4.70278592E-05  7.25500697E-02  5.12625424E-06  5.78616917E-06  3.58382582E-05
 -2.50572859E-05  4.42130341E-01 -8.43963950E-05 -5.12450601E-05  7.16630123E-05
  3.49614428E-01 -3.58355357E-05 -9.25773263E-05  2.37415188E-06 -1.45199515E-05
  1.08639661E-05  2.36783032E-05 -5.10863084E-06 -1.99859323E-05  6.20800983E-06
 -2.07221749E-05 -3.51036822E-05 -2.27630570E-05  1.58410283E-01 -2.82862190E-05
 -2.91966735E-05 -3.36865596E-05  1.71879057E-01 -7.56920550E-06  8.12545495E-06
 -2.25854648E-05 -8.28492757E-06 -2.95033840E-01  1.09974176E-04 -6.37976239E-05
 -1.63227022E-05 -4.65239099E-01  2.61926570E-05 -4.46673812E-05  5.05143762E-05
 -4.27074176E-06  4.98942794E-01 -4.55343943E-04  7.75657758E-05 -4.97960900E-05
  6.82367140E-01 -3.68222522E-05  6.32747154E-05  2.02249809E-05 -1.45073240E-05
 -3.68537188E-01  4.46465541E-04  1.14891092E-04 -3.59519177E-05 -4.74292541E-01
 -3.32200236E-05 -1.67197284E-04  2.71684757E-05  1.54099128E-04 -1.06009827E-05
 -1.99271910E-05  2.14551527E-06 -7.88416562E-06 -2.26905467E-02  4.68104264E-02
  9.78372691E-02  1.93763130E-02 -1.64812607E-05  2.91326556E-01  1.83700594E-01
  1.49894974E-03 -2.79385433E-05  3.95504702E-02 -7.39376976E-02 -6.53488850E-02
  1.37174773E-01  3.76398388E-05 -5.37179266E-01 -2.10024951E-01  2.90387764E-01
  5.31020205E-05  5.38888532E-02 -7.97585634E-02  5.81834471E-02  2.19163516E-01
 -5.55351502E-05 -8.87469951E-01  2.70512259E-01  3.56436868E-01 -8.97306401E-05
 -3.49604440E-02  4.67068339E-02  1.00236097E-01  2.85550554E-01  3.68821617E-05
  6.98476548E-01  3.93617211E-01  5.08161255E-01  5.98599140E-05 -1.00582176E-01
 -1.11266198E+00  1.29948782E-01  1.16882899E+00  5.88487527E-02  7.55976523E-01
 -1.33484486E-02 -1.73762402E-01  2.91225826E-02 -6.45413297E-02 -1.48309283E-01
 -1.05965972E-01  2.31099927E-06 -3.45624023E-01 -2.04394886E-01 -1.99583559E-01
  6.25298913E-06 -9.16992758E-02  1.53273258E-01  1.33168307E-01  6.58790435E-02
  2.06181426E-05  1.32770671E+00  4.44135114E-01  1.50831831E-01  4.47300838E-05
  9.32179420E-03 -3.89676514E-02  3.79587131E-02 -1.08708472E-01 -4.04726718E-05
  3.21202454E-01 -1.46746619E-01 -2.19917376E-01 -8.76358106E-05 -9.35754509E-02
  1.68796400E-01 -9.70435819E-02  1.88330195E-01  5.11415153E-05  1.12457449E+00
 -3.51399649E-01  5.68438115E-01  1.04730880E-04 -4.58950511E-02 -1.25749093E+00
  1.57165642E-04 -2.78694266E-01 -9.54250353E-02 -1.00069284E+00 -1.58288260E-02
 -8.56125137E-01 -9.78849316E-04  1.39006763E-03 -4.38618350E-02 -6.09289955E-02
 -1.09284360E-06  6.26893358E-02 -1.45168949E-02 -4.14784818E-02 -3.12693425E-06
  9.22330540E-02 -1.43658837E-01  3.83712194E-03 -2.08566117E-01  8.25947885E-06
 -1.34545063E+00  6.72389670E-02 -4.23625506E-01  1.66462779E-05 -3.69342477E-02
  6.76363093E-02  1.31442367E-01 -1.78974148E-01 -9.92180010E-06  4.49280332E-01
  4.64430071E-01 -5.77911532E-01 -2.77207083E-06 -7.08822403E-02  1.25763963E-01
  4.05932620E-03  1.33987713E-01  2.38637912E-05  1.15916627E+00  3.67634753E-01
  3.55110083E-01  4.67539301E-05 -7.72904666E-02 -9.68430734E-01 -6.00970956E-02
 -9.21869158E-01 -1.48097608E-02  1.19258738E-01  1.30665821E-01  1.38240916E+00
 -7.14023307E-02  1.70754857E-01  2.77996245E-01  2.97781766E-02  4.97701871E-06
  9.10369511E-01  5.55248397E-01  1.48256893E-01  2.45113015E-06  1.83781278E-02
 -5.28779746E-02  1.45510187E-01  1.95715023E-01 -1.07155499E-05  5.30046362E-02