naphtalene                                                              
FOpt      ULC-BLYP TD-FC                                              STO-3G              
Number of atoms                            I                3
Info1-9                                    I   N=           9
          14          14        1000           0           0         101
           2         218         201
Charge                                     I                0
Multiplicity                               I                2
Number of electrons                        I               23
Number of alpha electrons                  I               12
Number of beta electrons                   I               11
Number of basis functions                  I               15
Number of independent functions            I               15
Number of point charges in /Mol/           I                0
Number of translation vectors              I                0
Atomic numbers                             I   N=           3
           7           8           8
Nuclear charges                            R   N=           3
  7.00000000E+00  8.00000000E+00  8.00000000E+00
Current cartesian coordinates              R   N=           9
 -6.60819811E-05  8.11357777E-01  0.00000000E+00  2.26734528E+00 -4.05696748E-01
  0.00000000E+00 -2.26727920E+00 -4.05659140E-01  0.00000000E+00
Number of symbols in /Mol/                 I                0
Force Field                                I                0
Atom Types                                 C   N=           3
                                    
Int Atom Types                             I   N=           3
           0           0           0
MM charges                                 R   N=           3
  0.00000000E+00  0.00000000E+00  0.00000000E+00
Integer atomic weights                     I   N=           3
          14          16          16
Real atomic weights                        R   N=           3
  1.40030740E+01  1.59949146E+01  1.59949146E+01
Atom fragment info                         I   N=           3
           0           0           0
Atom residue num                           I   N=           3
           0           0           0
Nuclear spins                              I   N=           3
           2           0           0
Nuclear ZEff                               R   N=           3
 -4.55000000E+00 -5.60000000E+00 -5.60000000E+00
Nuclear QMom                               R   N=           3
  2.04400000E+00  0.00000000E+00  0.00000000E+00
Nuclear GFac                               R   N=           3
  4.03761000E-01  0.00000000E+00  0.00000000E+00
MicOpt                                     I   N=           3
          -1          -1          -1
Number of residues                         I                0
Number of secondary structures             I                0
Number of contracted shells                I                6
Number of primitive shells                 I               18
Pure/Cartesian d shells                    I                0
Pure/Cartesian f shells                    I                0
Highest angular momentum                   I                1
Largest degree of contraction              I                3
Shell types                                I   N=           6
           0          -1           0          -1           0          -1
Number of primitives per shell             I   N=           6
           3           3           3           3           3           3
Shell to atom map                          I   N=           6
           1           1           2           2           3           3
Primitive exponents                        R   N=          18
  9.91061690E+01  1.80523124E+01  4.88566024E+00  3.78045588E+00  8.78496645E-01
  2.85714374E-01  1.30709321E+02  2.38088661E+01  6.44360831E+00  5.03315132E+00
  1.16959612E+00  3.80388960E-01  1.30709321E+02  2.38088661E+01  6.44360831E+00
  5.03315132E+00  1.16959612E+00  3.80388960E-01
Contraction coefficients                   R   N=          18
  1.54328967E-01  5.35328142E-01  4.44634542E-01 -9.99672292E-02  3.99512826E-01
  7.00115469E-01  1.54328967E-01  5.35328142E-01  4.44634542E-01 -9.99672292E-02
  3.99512826E-01  7.00115469E-01  1.54328967E-01  5.35328142E-01  4.44634542E-01
 -9.99672292E-02  3.99512826E-01  7.00115469E-01
P(S=P) Contraction coefficients            R   N=          18
  0.00000000E+00  0.00000000E+00  0.00000000E+00  1.55916275E-01  6.07683719E-01
  3.91957393E-01  0.00000000E+00  0.00000000E+00  0.00000000E+00  1.55916275E-01
  6.07683719E-01  3.91957393E-01  0.00000000E+00  0.00000000E+00  0.00000000E+00
  1.55916275E-01  6.07683719E-01  3.91957393E-01
Coordinates of each shell                  R   N=          18
 -6.60819811E-05  8.11357777E-01  0.00000000E+00 -6.60819811E-05  8.11357777E-01
  0.00000000E+00  2.26734528E+00 -4.05696748E-01  0.00000000E+00  2.26734528E+00
 -4.05696748E-01  0.00000000E+00 -2.26727920E+00 -4.05659140E-01  0.00000000E+00
 -2.26727920E+00 -4.05659140E-01  0.00000000E+00
Constraint Structure                       R   N=           9
  0.00000000E+00  9.85034865E-01  0.00000000E+00  2.08173176E+00 -4.92517432E-01
  0.00000000E+00 -2.08173176E+00 -4.92515543E-01  0.00000000E+00
Num ILSW                                   I              100
ILSW                                       I   N=         100
           1           0           0           0           2           0
           0           0           3           0       10402          -1
           0           0           0           0           0           0
           0           0           0           0           1           0
           0           1           1           0           0           0
           0           0      100000           0          -1           0
           0           0           0           0           0           0
           0           0           0           1           0           0
           0           0           1           0           0           0
           0           0           4          40           0           0
           0           0           0           0           0           0
           0           0           0           0           0           0
           0           0           0           0           0           0
           0           0           0           0           0           0
           0           0           0           0           0           0
           0           0           0           0           0           0
           0           0           0           0
Num RLSW                                   I               40
RLSW                                       R   N=          40
  1.00000000E+00  1.00000000E+00  1.00000000E+00  1.00000000E+00  1.00000000E+00
  0.00000000E+00  4.70000000E-01  0.00000000E+00  0.00000000E+00  1.00000000E+00
  0.00000000E+00  4.70000000E-01  0.00000000E+00  0.00000000E+00  1.00000000E+00
  0.00000000E+00  0.00000000E+00  1.00000000E+00  0.00000000E+00  0.00000000E+00
  0.00000000E+00  0.00000000E+00  1.00000000E+00  0.00000000E+00  0.00000000E+00
  0.00000000E+00  0.00000000E+00  1.00000000E+00  0.00000000E+00  0.00000000E+00
  0.00000000E+00  0.00000000E+00  1.00000000E+00  0.00000000E+00  0.00000000E+00
  0.00000000E+00  0.00000000E+00  0.00000000E+00  1.00000000E+00  1.00000000E+00
MxBond                                     I                2
NBond                                      I   N=           3
           2           1           1
IBond                                      I   N=           6
           2           3           1           0           1           0
RBond                                      R   N=           6
  1.00000000E+00  1.00000000E+00  1.00000000E+00  0.00000000E+00  1.00000000E+00
  0.00000000E+00
Virial Ratio                               R      2.014794090172718E+00
SCF Energy                                 R     -2.017690688967334E+02
CIS Energy                                 R     -2.018372724014681E+02
Total Energy                               R     -2.018372724014681E+02
Post-SCF wavefunction norm                 R      1.000000000000000E+00
S**2                                       R      7.635636579037968E-01
S**2 after annihilation                    R      7.500334650781571E-01
RMS Force                                  R      2.465200160665532E-03
RMS Density                                R      1.028397060309969E-09
External E-field                           R   N=          35
  0.00000000E+00  0.00000000E+00  0.00000000E+00  0.00000000E+00  0.00000000E+00
  0.00000000E+00  0.00000000E+00  0.00000000E+00  0.00000000E+00  0.00000000E+00
  0.00000000E+00  0.00000000E+00  0.00000000E+00  0.00000000E+00  0.00000000E+00
  0.00000000E+00  0.00000000E+00  0.00000000E+00  0.00000000E+00  0.00000000E+00
  0.00000000E+00  0.00000000E+00  0.00000000E+00  0.00000000E+00  0.00000000E+00
  0.00000000E+00  0.00000000E+00  0.00000000E+00  0.00000000E+00  0.00000000E+00
  0.00000000E+00  0.00000000E+00  0.00000000E+00  0.00000000E+00  0.00000000E+00
IOpCl                                      I                1
IROHF                                      I                0
Alpha Orbital Energies                     R   N=          15
 -1.88457299E+01 -1.88455650E+01 -1.42462855E+01 -1.25407970E+00 -1.11334314E+00
 -7.52484891E-01 -5.59757441E-01 -5.40380553E-01 -5.30482748E-01 -3.65573904E-01
 -3.35968083E-01 -3.30256783E-01  8.71492445E-02  3.47320872E-01  4.70119739E-01
Beta Orbital Energies                      R   N=          15
 -1.88393392E+01 -1.88391768E+01 -1.42426627E+01 -1.23727370E+00 -1.08862938E+00
 -7.12795023E-01 -5.21166339E-01 -5.17748182E-01 -4.98361771E-01 -3.21547146E-01
 -2.92647026E-01  5.25806806E-02  9.92666657E-02  3.61995150E-01  5.10329369E-01
Alpha MO coefficients                      R   N=         225
  4.92470790E-04 -5.11961443E-03  4.59290381E-03  2.42952463E-03 -3.83541071E-16
 -1.70005173E-02 -4.04066198E-04 -1.23370447E-04 -2.50054635E-04 -5.41140027E-17
  9.93475728E-01  2.69028014E-02  3.35168532E-03  1.74895941E-03  9.49960190E-16
  5.09561093E-04 -5.29646236E-03 -4.43768941E-03  2.51352246E-03 -1.54034564E-15
  9.93475633E-01  2.69035936E-02 -3.35691945E-03  1.74088038E-03  1.16978765E-16
  1.69869888E-02  5.16281690E-04  2.38128292E-04 -1.90402008E-04  1.21404514E-16
  9.92838162E-01  3.08522706E-02 -1.05370709E-06 -3.85862638E-03 -1.50767994E-16
  8.46902148E-04 -5.58767776E-03  3.82512189E-03 -1.70462776E-03  6.11667742E-16
  8.46970598E-04 -5.58904082E-03 -3.82557858E-03 -1.70500614E-03  1.50084318E-17
 -1.59259567E-01  5.15189260E-01 -1.26026671E-04 -1.24838816E-01 -6.79218336E-16
 -1.28108175E-01  4.39796867E-01 -1.15804049E-01  5.28892525E-02 -2.96594799E-15
 -1.28276429E-01  4.40397388E-01  1.15925245E-01  5.29610946E-02  2.03797099E-15
 -8.87462908E-05  3.18683913E-04  2.59799038E-01 -6.51001303E-05  1.84704695E-15
 -1.68768143E-01  6.17354265E-01 -9.10403863E-02  6.03085018E-02  5.72896917E-16
  1.68653744E-01 -6.16969651E-01 -9.09217534E-02 -6.02690868E-02  2.06145652E-15
 -1.81014238E-01  7.30183845E-01 -8.36819922E-05  9.33381029E-02  9.01996426E-16
  1.33817330E-01 -5.74003636E-01 -1.63503633E-01  1.28697665E-01 -1.00440030E-15
  1.33828515E-01 -5.74085418E-01  1.63621898E-01  1.28854417E-01  9.51916233E-16
 -2.89407460E-05  1.32045512E-04  4.95956043E-01 -3.58085991E-04  2.00671331E-15
  7.87152712E-02 -3.68832881E-01 -2.89032083E-01  3.78142541E-01 -1.31540469E-15
 -7.86189849E-02  3.68404702E-01 -2.88533006E-01 -3.78761977E-01 -2.05420617E-15
 -3.69326828E-02  1.67862974E-01  3.84432475E-04  6.55436989E-01  1.12522722E-14
 -3.49230215E-02  1.66379127E-01  3.45271943E-01  2.58908882E-01  7.12218072E-15
 -3.50423979E-02  1.66951000E-01 -3.46136149E-01  2.58822870E-01  4.74996983E-15
  6.89164851E-16 -3.45619703E-15  1.44396271E-15 -1.03872658E-14  6.66305056E-01
  9.38694684E-16 -3.94962028E-15 -7.08892574E-15 -3.34811583E-15  4.47018728E-01
 -2.48275556E-16  3.69992511E-16  4.27060278E-15 -1.98210787E-16  4.47244872E-01
  1.66379989E-04 -8.14570818E-04  1.13780453E-01 -1.27385984E-03 -7.67853239E-15
  1.46595071E-02 -7.15486744E-02 -4.91801250E-01 -5.05585724E-01  2.93612768E-14
 -1.46318564E-02  7.14068224E-02 -4.91517950E-01  5.08023050E-01 -2.52915254E-14
 -2.00679221E-14  9.93803310E-14 -3.71323157E-15  1.14674778E-13  1.43159073E-04
 -3.32676150E-16  1.25515157E-15  2.11510051E-14 -1.48946603E-13  7.08579523E-01
  1.02204459E-15 -4.76735686E-15  1.58734959E-14 -1.87217377E-13 -7.08462993E-01
  7.50102718E-02 -3.73878057E-01 -8.42411919E-05 -4.42656747E-01  3.65159431E-15
 -1.54409966E-03  6.87815875E-03 -1.00080142E-02  6.45321704E-01  1.79997398E-13
 -1.51800912E-03  6.75466110E-03  1.19391584E-02  6.43049508E-01 -1.90162231E-13
  5.96249161E-17  6.32049090E-17 -8.70575144E-16  4.36693969E-15  7.68584071E-01
  4.32147350E-17  8.92307780E-16 -5.62401625E-15 -8.59874072E-15 -5.61581770E-01
 -2.39674725E-17  6.57530456E-16 -1.34729079E-15  1.90508996E-16 -5.61556222E-01
 -1.30996003E-01  7.21472670E-01  1.44385346E-04 -7.09190969E-01  1.62203276E-15
  5.61948862E-02 -3.25539611E-01  6.68551767E-01 -1.37678440E-01 -1.07543878E-15
  5.61807459E-02 -3.25481819E-01 -6.68324381E-01 -1.37581964E-01 -1.39583606E-15
  3.19091923E-05 -2.05433845E-04  1.05204931E+00  1.77703523E-04 -6.97689911E-17
  6.12518300E-02 -3.70272980E-01  4.94284201E-01 -3.77211022E-01 -9.12881253E-16
 -6.12820650E-02  3.70483603E-01  4.94535420E-01  3.77271345E-01 -5.54914854E-16
Beta MO coefficients                       R   N=         225
  4.29984160E-04 -4.45698763E-03  4.96990679E-03  2.16036515E-03  7.51472708E-16
 -1.20698013E-01 -3.18626181E-03  2.30966886E-04 -4.21071253E-04 -7.49133695E-16
  9.86339160E-01  2.64024703E-02  3.28949947E-03  1.71145315E-03 -3.29925802E-17
  5.49830952E-04 -5.69838646E-03 -3.88562309E-03  2.76223890E-03  7.30071201E-16
  9.86338223E-01  2.64127170E-02 -3.33121275E-03  1.65831502E-03 -4.19596315E-16
  1.20689909E-01  3.27647298E-03  5.79184267E-04 -8.82981791E-06 -5.70492368E-16
  9.92869370E-01  3.07325459E-02 -1.07044169E-06 -3.99979917E-03  8.35022748E-16
  8.31433557E-04 -5.56258387E-03  3.83746541E-03 -1.72185260E-03 -2.38173957E-16
  8.31491258E-04 -5.56392853E-03 -3.83784454E-03 -1.72235115E-03 -2.86225105E-16
 -1.62823396E-01  5.31273883E-01 -1.10161794E-04 -1.32934730E-01  7.56494235E-16
 -1.25131288E-01  4.26802964E-01 -1.19141584E-01  4.42002261E-02  1.82297390E-15
 -1.25261562E-01  4.27261494E-01  1.19255978E-01  4.42501771E-02 -3.14812266E-15
 -6.70267409E-05  2.44727597E-04  2.75558327E-01 -5.50878801E-05 -1.28703234E-15
 -1.67274763E-01  6.10185196E-01 -9.54604245E-02  4.90452031E-02  1.43103601E-15
  1.67179367E-01 -6.09859204E-01 -9.53774828E-02 -4.90291693E-02  8.60845656E-16
 -1.74204352E-01  7.04612383E-01 -7.01766808E-05  1.77433531E-02 -4.34651923E-16
  1.39128695E-01 -5.98157867E-01 -1.90471660E-01  1.03021321E-01  1.48751365E-15
  1.39151421E-01 -5.98282317E-01  1.90632515E-01  1.03114146E-01 -1.42020342E-15
 -6.47843462E-16  3.01420341E-15  1.24832397E-13  5.98644042E-15  6.73600184E-01
  1.90702880E-14 -8.96124214E-14 -8.02544894E-14  5.99175729E-14  4.41481030E-01
 -1.92487006E-14  9.11737611E-14 -8.46100441E-14 -5.80432253E-14  4.42037171E-01
 -1.06094853E-04  4.72437853E-04  5.47405247E-01  6.05372441E-04 -1.56291634E-13
  8.37035993E-02 -3.94925387E-01 -3.65424773E-01  2.47403397E-01 -1.02749735E-13
 -8.36963829E-02  3.94919839E-01 -3.66162088E-01 -2.46863336E-01 -9.58568892E-14
 -6.13412433E-02  2.71091899E-01 -6.26231870E-04  6.36504526E-01 -4.67432506E-15
 -2.08681306E-02  1.01999538E-01  3.46674463E-01  2.67850150E-01  4.02216497E-15
 -2.06892326E-02  1.01152416E-01 -3.45966114E-01  2.68261661E-01 -1.02361081E-14
 -2.48391396E-15  1.13574811E-14  1.42722180E-15  1.23676938E-14 -6.84475596E-04
 -7.32676240E-17  4.22121943E-16  1.95500593E-14  6.97964942E-15 -7.08396712E-01
  6.12405120E-17 -1.82163776E-16  1.33999077E-14 -2.47462697E-14  7.08645521E-01
  6.12434379E-05 -3.02621027E-04  1.04458068E-01 -4.42492352E-04 -1.46883632E-14
  5.85160391E-03 -3.57572517E-02  4.68471146E-01  5.33632419E-01  2.90912498E-14
 -5.85022634E-03  3.57455647E-02  4.68407000E-01 -5.32545792E-01 -1.46116615E-14
  7.17197113E-02 -3.57690684E-01 -1.01227273E-04 -4.61475045E-01 -1.98683296E-14
 -2.21936534E-03  6.99769717E-03  2.99407897E-03  6.39620594E-01  3.75004594E-15
 -2.20423832E-03  6.91253669E-03 -3.86571754E-03  6.40514332E-01  2.89887865E-14
  2.22547813E-15 -1.13113438E-14  4.27894969E-15 -1.11823242E-14  7.62198299E-01
  2.90876827E-16 -9.95694184E-16  5.38232009E-15  2.73177715E-14 -5.66174325E-01
 -1.79324782E-16  1.84932573E-15  7.24911611E-15  9.06195307E-15 -5.65435976E-01
  1.28270276E-01 -7.11982971E-01 -2.07304180E-06  7.18823713E-01 -1.21268205E-15
 -5.63660149E-02  3.26179892E-01 -6.60441548E-01  1.61926813E-01  9.80702391E-16
 -5.63725370E-02  3.26238444E-01  6.60392376E-01  1.61771299E-01  8.10561210E-16
  1.95435587E-05 -1.37566870E-04  1.02309631E+00  1.09751175E-04  2.28533564E-16
  5.95176166E-02 -3.60052972E-01  4.64186499E-01 -4.45309695E-01  8.47094145E-16
 -5.95407046E-02  3.60214920E-01  4.64251370E-01  4.45442927E-01  4.65983277E-16
Total SCF Density                          R   N=         120
  2.09725994E+00 -4.13212099E-01  1.82077668E+00 -7.45851016E-06  4.22137624E-05
  7.12991485E-01 -8.27122914E-02  3.93498545E-01 -1.57466263E-04  1.07302158E+00
  7.57534268E-16 -6.44277810E-16 -1.78178489E-15 -1.19461843E-16  8.97700124E-01
 -2.55640274E-03  4.20576846E-02 -1.17119138E-02  1.70314387E-02 -8.90240743E-16
  2.11562132E+00  4.55823716E-02 -3.34701368E-01 -8.27080689E-02 -4.79817177E-03
  5.76924130E-16 -4.94174012E-01  2.15433602E+00  7.34642545E-02 -2.20605455E-01
 -4.00361884E-01  4.63313260E-01 -3.25290434E-15 -7.10269391E-02  3.53423534E-01
  1.02597557E+00 -3.79472959E-02  9.24224132E-02  3.50201833E-01  5.63288039E-02
  3.71198838E-16  3.48412866E-02 -1.71349352E-01  4.12475816E-01  1.33778017E+00
  1.03978781E-15 -3.16092413E-15  2.12140217E-15 -2.00980333E-15  5.95818862E-01
 -3.76701911E-16  3.98213491E-16  1.52697114E-15  8.36146676E-15  1.39864209E+00
 -2.55440244E-03  4.20590340E-02  1.17296503E-02  1.70534126E-02  2.58793255E-16
  1.14246535E-03 -8.35331498E-03 -1.17607157E-02 -2.45825273E-02 -7.11186542E-16
  2.11561916E+00  4.55817977E-02 -3.34742947E-01  8.26399333E-02 -4.90562037E-03
  4.53297469E-16 -8.35352858E-03  5.03982225E-02  4.37268259E-02  1.34210905E-01
 -3.79148979E-17 -4.94163362E-01  2.15430235E+00 -7.34020728E-02  2.20244147E-01
 -4.00382215E-01 -4.63675749E-01 -2.81607003E-15  1.17544469E-02 -4.36922246E-02
  3.65450853E-01  1.66135499E-01  1.60021459E-15  7.10290865E-02 -3.53452062E-01
  1.02615528E+00 -3.80098227E-02  9.27135406E-02 -3.50112247E-01  5.67064903E-02
  6.53107495E-15 -2.45734524E-02  1.34154882E-01 -1.65674923E-01 -1.65566332E-01
  2.95578494E-15  3.48391285E-02 -1.71337303E-01 -4.11855661E-01  1.33660791E+00
 -1.33371259E-15  5.58936618E-15  2.37611931E-15  6.50761284E-15  5.95171365E-01
 -1.50547040E-16 -9.41165452E-16  1.41786872E-15 -8.16156290E-15 -6.08926668E-01
  1.07202700E-15 -6.68473566E-16  3.14506894E-15 -1.52911883E-14  1.39952312E+00
Spin SCF Density                           R   N=         120
  4.43702714E-03 -2.24696846E-02  1.14339540E-01 -2.18709806E-06  8.89632043E-06
 -6.00816974E-02 -3.37943270E-02  1.64937005E-01  7.29536464E-05  2.26714898E-01
 -5.42758523E-16 -2.24330119E-15  4.92603730E-15 -1.82496642E-15 -9.77522751E-03
 -2.87423334E-05  3.86810005E-04 -3.55546371E-03  3.55506855E-04 -1.82117238E-15
 -1.85252017E-04 -2.98552040E-04  1.03857621E-04  2.12221840E-02  3.93108774E-04
 -1.86011266E-15  1.14307322E-03 -6.99768593E-03  3.07062411E-03 -1.31519615E-02
 -4.51993204E-02 -2.02875382E-03  7.43722233E-15 -2.99791512E-03  1.81266369E-02
 -3.96172285E-02  4.86118094E-02 -2.44760461E-01 -5.87953145E-02 -2.76394257E-01
  1.53243656E-14 -6.20880288E-03  3.31373853E-02 -3.32402552E-02  4.72392013E-01
  1.46856553E-16  4.17203467E-15 -4.43767351E-16  5.69245416E-15  8.56952846E-05
  8.77955553E-16 -1.28460596E-15 -3.77951212E-15 -1.76243046E-14  5.17928243E-03
 -2.87632156E-05  3.87450589E-04  3.54810718E-03  3.42517575E-04 -1.25584450E-15
  2.35234451E-04 -1.36723964E-03  2.31719430E-03  5.94558613E-04  8.22416780E-16
 -1.83950592E-04 -2.99139068E-04  1.04026827E-04 -2.11868439E-02  4.62897535E-04
  2.93262465E-16 -1.36735384E-03  7.98718266E-03 -1.37565699E-02 -8.22037440E-03
 -5.29375713E-16  1.13623582E-03 -6.96242064E-03 -3.12306588E-03  1.34101100E-02
 -4.52062639E-02  2.48308782E-03  6.99915893E-15 -2.31875894E-03  1.37716216E-02
 -1.82945176E-02 -7.74264310E-03 -5.14893964E-15  2.99178757E-03 -1.80957702E-02
 -3.95603915E-02  4.86619318E-02 -2.45006567E-01  5.87776504E-02 -2.76886375E-01
 -5.71206245E-15  5.94605138E-04 -8.22937365E-03  7.34725634E-03  3.60890053E-01
 -3.08406612E-15 -6.20386615E-03  3.31055092E-02  3.26305509E-02  4.73585500E-01
  5.34269013E-16 -2.18389655E-15 -2.50229403E-15 -3.96517375E-15  6.28827678E-04
 -1.02109259E-16  2.97961591E-15 -5.73720334E-15 -2.02935164E-15  4.77559560E-03
  8.84249312E-16 -1.44621579E-16 -3.18230221E-15  1.43530807E-14  4.37245328E-03
Total CI Rho(1) Density                    R   N=         120
  2.09764239E+00 -4.15139144E-01  1.83048612E+00 -9.57226071E-06  5.33270749E-05
  7.12339612E-01 -8.47551020E-02  4.03386063E-01 -1.43274446E-04  1.09152184E+00
  2.04625794E-14 -1.07182928E-13  8.24216292E-13  4.28654344E-14  1.64419271E+00
 -2.58408729E-03  4.21998412E-02 -1.17347656E-02  1.68889571E-02  3.91311585E-14
  2.11561501E+00  4.57112157E-02 -3.35388710E-01 -8.25339633E-02 -3.81534648E-03
 -2.46723570E-13 -4.94168394E-01  2.15441641E+00  7.33048966E-02 -2.19654679E-01
 -4.03371012E-01  4.60713566E-01 -1.80361458E-14 -7.12186514E-02  3.54286991E-01
  1.01263082E+00 -3.47967389E-02  7.68603413E-02  3.44173261E-01  3.45942855E-02
 -7.37505861E-13  3.43511820E-02 -1.68871380E-01  3.95263562E-01  1.34490518E+00
 -2.59651167E-13  1.25798828E-12 -8.84608595E-13  1.79212870E-12  4.59874367E-02
  6.43652408E-14 -1.18458960E-13  1.39458223E-13 -6.63373783E-13  1.16353579E+00
 -2.58171076E-03  4.21993712E-02  1.17527837E-02  1.69089500E-02 -5.24234761E-14
  1.15953751E-03 -8.44384625E-03 -1.13155388E-02 -2.40976136E-02  7.06766286E-14
  2.11561281E+00  4.57086564E-02 -3.35420468E-01  8.24648271E-02 -3.91136268E-03
  3.21288136E-13 -8.44404802E-03  5.08950938E-02  4.13710267E-02  1.31390457E-01
 -3.71511236E-13 -4.94157533E-01  2.15438179E+00 -7.32540003E-02  2.19348001E-01
 -4.03402060E-01 -4.60995702E-01  1.33522626E-13  1.13082723E-02 -4.13304497E-02
  3.49083422E-01  1.47031598E-01 -9.93890443E-13  7.12210262E-02 -3.54316854E-01
  1.01278799E+00 -3.48482437E-02  7.70978977E-02 -3.44109844E-01  3.48725750E-02
  8.74172960E-13 -2.40893067E-02  1.31338673E-01 -1.46648536E-01 -1.14887231E-01
 -6.52766602E-13  3.43515010E-02 -1.68874456E-01 -3.94698350E-01  1.34386884E+00
  2.30554902E-13 -1.10080493E-12 -5.99648247E-13 -1.86480487E-12  4.69348850E-02
 -1.44681969E-13  5.96330667E-13 -1.13698202E-12  5.44317200E-13  4.33696395E-01
  2.80587348E-14 -2.17274349E-13 -2.14752948E-13  5.72748433E-13  1.16470370E+00
Spin CI Rho(1) Density                     R   N=         120
  4.13969767E-03 -2.10082608E-02  1.07158387E-01 -6.97953873E-07  2.25089135E-06
 -5.77923840E-02 -3.12692403E-02  1.52284645E-01  5.67484853E-05  2.10092179E-01
 -2.17440973E-14  1.11699892E-13 -2.14920129E-15 -5.22520925E-14  1.19308963E-01
 -3.61889900E-05  4.28113031E-04 -3.34634280E-03  2.40659499E-04  4.72193544E-15
 -1.63770521E-04 -2.19893517E-04 -3.17736948E-04  2.01229876E-02  7.61088239E-04
 -3.89371062E-14  1.02198393E-03 -6.32905419E-03  2.79520535E-03 -1.17293655E-02
 -4.00258123E-02 -1.91699433E-03  3.87642295E-13 -2.63559472E-03  1.59570028E-02
 -2.50815656E-02  4.55320506E-02 -2.29475817E-01 -5.31124632E-02 -2.53513090E-01
  4.48390546E-13 -5.78032680E-03  3.10424308E-02 -1.75022243E-02  4.64626941E-01
 -1.61634305E-13  7.48593892E-13  9.24678618E-14  7.23263210E-13 -9.03082887E-02
  9.58695628E-14 -3.93891696E-13  9.48350978E-14 -8.47352043E-13 -3.68849095E-02
 -3.64175373E-05  4.29752826E-04  3.33959033E-03  2.30424553E-04  4.94451141E-15
  2.23889194E-04 -1.30793430E-03  2.05584427E-03  2.14674571E-04  1.75332114E-14
 -1.62566158E-04 -2.19280004E-04 -3.23216032E-04 -2.00910016E-02  8.16082204E-04
 -3.75544066E-14 -1.30807398E-03  7.67802439E-03 -1.21990898E-02 -5.74432518E-03
 -6.75650662E-14  1.01569341E-03 -6.29681338E-03 -2.83845182E-03  1.19415523E-02
 -4.00347044E-02  2.27852082E-03  2.27281987E-13 -2.05630837E-03  1.22077379E-02
 -5.15690388E-03  1.05705900E-02  4.44012694E-13  2.63027110E-03 -1.59318286E-02
 -2.50059162E-02  4.55710492E-02 -2.29666914E-01  5.31145709E-02 -2.53908494E-01
 -5.71105804E-13  2.15385420E-04 -5.75664419E-03 -1.08809854E-02  3.09672312E-01
 -1.19517017E-12 -5.77774059E-03  3.10241126E-02  1.69454792E-02  4.65684265E-01
  1.93124870E-13 -9.14692547E-13  2.24964896E-13 -6.46069042E-13 -9.03973478E-02
 -8.69593152E-14  3.42265251E-13  3.16273880E-13  1.38397569E-12  1.73659716E-01
 -4.60886318E-14  2.43735444E-13  1.98438381E-13  8.69661901E-13 -3.69268706E-02
Total CI Density                           R   N=         120
  2.09026738E+00 -3.82940198E-01  1.69639798E+00  1.47600523E-04 -7.23833468E-04
  4.88657729E-01 -8.01955719E-02  3.83230883E-01 -3.52772410E-03  7.63360646E-01
  1.71606975E-14 -8.41107836E-14  8.77985967E-13  1.91447312E-14  1.86597270E+00
 -1.03190656E-03  3.56707838E-02 -2.25541729E-02  2.40415077E-02  4.36473190E-14
  2.11460543E+00  3.71872719E-02 -2.99531580E-01 -1.16444719E-02 -5.22085996E-02
 -2.74014714E-13 -4.87759799E-01  2.11376862E+00  7.70686375E-02 -2.16590141E-01
 -3.97263746E-01  4.54115310E-01  5.77019151E-14 -6.91005508E-02  3.45606957E-01
  1.15623148E+00 -5.05127347E-02  1.33707272E-01  3.31357838E-01  8.50998218E-02
 -7.55590807E-13  3.59599622E-02 -1.75370167E-01  3.86262622E-01  1.51344512E+00
 -2.77773381E-13  1.34520876E-12 -8.81517429E-13  1.89260594E-12  4.85641817E-02
  6.56484846E-14 -1.25129217E-13  1.21201831E-13 -8.25023118E-13  1.04233447E+00
 -1.06302330E-03  3.58400331E-02  2.26862232E-02  2.44806254E-02 -5.19184873E-14
  1.16121658E-03 -8.79185404E-03 -1.18555421E-02 -1.93344531E-02  6.99859404E-14
  2.11459586E+00  3.73514172E-02 -3.00402936E-01  1.07772422E-02 -5.48016714E-02
  3.22503494E-13 -8.79223477E-03  5.49663742E-02  4.37228743E-02  1.10091339E-01
 -3.68994976E-13 -4.87688943E-01  2.11328485E+00 -7.52704164E-02  2.07376048E-01
 -3.97562724E-01 -4.63050970E-01  1.69804036E-13  1.17036884E-02 -4.29346005E-02
  3.10294885E-01  6.96736710E-02 -1.02119029E-12  6.89267586E-02 -3.44854037E-01
  1.16014356E+00 -5.22408361E-02  1.42232734E-01 -3.27328192E-01  9.52566967E-02
  8.21352975E-13 -1.89384686E-02  1.08014947E-01 -5.68831255E-02 -6.19317788E-02
 -7.49879808E-13  3.57120053E-02 -1.73938013E-01 -3.72518000E-01  1.48265038E+00
  2.40919477E-13 -1.15184358E-12 -5.52299893E-13 -2.00661426E-12  3.31041859E-02
 -1.39209780E-13  5.64331961E-13 -1.10503078E-12  6.67679112E-13  3.24722615E-01
  2.62092400E-14 -2.08924811E-13 -2.50935723E-13  7.93124475E-13  1.06791463E+00
Spin CI Density                            R   N=         120
  1.03206077E-02 -4.98757380E-02  2.40771311E-01 -1.65328423E-04  7.44941323E-04
 -1.29511853E-02 -5.59754073E-02  2.65831156E-01  2.56403604E-03  3.55109519E-01
 -2.33115727E-14  1.22414096E-13 -1.04970429E-14 -5.07026506E-14  4.88184253E-01
 -7.12810769E-04  3.52297560E-03 -1.41790452E-03  3.65106070E-03  5.16084699E-15
 -1.13612727E-04  3.14535473E-03 -1.57996195E-02  7.18674833E-03 -1.24754197E-02
 -3.96373636E-14  5.67160790E-04 -2.59767102E-03 -5.37983737E-03  2.60234755E-02
 -1.24162456E-02  5.02271872E-02  3.64993790E-13 -2.03329988E-03  1.06614971E-02
 -2.14028723E-02  6.61576752E-02 -3.16744295E-01 -3.19167343E-02 -2.91512999E-01
  3.72645392E-13 -9.17165015E-03  4.62726936E-02 -8.28665503E-02  3.24701229E-01
 -1.40640500E-13  6.39140784E-13  9.00230341E-14  6.38931795E-13 -1.16415033E-01
  9.31683060E-14 -3.79455945E-13  8.95826137E-14 -6.34423780E-13 -1.96636978E-01
 -6.85486822E-04  3.39653836E-03  1.31127395E-03  3.28728860E-03  5.78410918E-15
  1.22776188E-04 -7.01522864E-04 -1.48443493E-05 -6.22870104E-03  1.54220996E-14
 -1.00851857E-04  2.99751124E-03 -1.51204811E-02 -6.55147555E-03 -1.04183792E-02
 -4.26699344E-14 -7.00871365E-04  4.09588760E-03 -2.93713885E-04  2.66916535E-02
 -5.59035160E-14  4.90299855E-04 -2.13770493E-03  3.91547658E-03 -1.87755808E-02
 -1.29264481E-02 -4.02221801E-02  2.05308092E-13  1.21672214E-05  4.46087805E-04
  2.66818422E-02  8.63369719E-02  4.73895847E-13  2.07731898E-03 -1.08231847E-02
 -2.24365481E-02  6.77080118E-02 -3.24370738E-01  3.06254319E-02 -3.03281936E-01
 -5.66378692E-13 -6.37922221E-03  2.72717988E-02 -9.63584919E-02  2.50234729E-01
 -1.05103892E-12 -9.01015915E-03  4.53223155E-02  6.96362836E-02  3.57097710E-01
  1.70759720E-13 -8.01026949E-13  2.62348329E-13 -5.71490082E-13 -8.82345084E-02
 -8.21082305E-14  3.14152654E-13  3.78889846E-13  1.26541034E-12 -6.97364125E-03
 -4.53513209E-14  2.40889909E-13  1.98157893E-13  7.10307268E-13 -2.38397912E-01
Anisotropic Hyperfine tensors              R   N=          18
 -8.04854425E-01  6.01610773E-03  2.43585572E-01 -3.15959038E-14 -1.04537321E-13
  5.61268853E-01 -1.70402767E-01 -3.77983333E-01  1.17937732E+00  3.76718175E-13
 -2.59834999E-12 -1.00897456E+00 -1.60952663E-01  3.23605136E-01  1.32949256E+00
  7.63936156E-13  2.86986475E-12 -1.16853989E+00
Isotropic Hyperfine splittings             R   N=           3
  4.82807259E-01 -8.08289625E-03 -7.16849204E-03
QEq coupling tensors                       R   N=          18
 -1.44813643E+00 -8.94237978E-03 -7.17795274E-01  2.04803088E-12  5.60943047E-14
  2.16593171E+00 -2.30168234E-01  1.54130673E+00  1.14958738E+00  7.38537591E-13