naphtalene                                                              
Freq      ULC-BLYP TD-FC                                              STO-3G              
Number of atoms                            I                3
Info1-9                                    I   N=           9
          14          14        1001           0           0         101
           6         218         201
Charge                                     I                0
Multiplicity                               I                2
Number of electrons                        I               23
Number of alpha electrons                  I               12
Number of beta electrons                   I               11
Number of basis functions                  I               15
Number of independent functions            I               15
Number of point charges in /Mol/           I                0
Number of translation vectors              I                0
Atomic numbers                             I   N=           3
           7           8           8
Nuclear charges                            R   N=           3
  7.00000000E+00  8.00000000E+00  8.00000000E+00
Current cartesian coordinates              R   N=           9
 -4.19867190E-04  8.38106082E-01  0.00000000E+00  2.24691816E+00 -4.18776297E-01
  0.00000000E+00 -2.24755654E+00 -4.19135143E-01  0.00000000E+00
Number of symbols in /Mol/                 I                0
Force Field                                I                0
Atom Types                                 C   N=           3
                                    
Int Atom Types                             I   N=           3
           0           0           0
MM charges                                 R   N=           3
  0.00000000E+00  0.00000000E+00  0.00000000E+00
Integer atomic weights                     I   N=           3
          14          16          16
Real atomic weights                        R   N=           3
  1.40030740E+01  1.59949146E+01  1.59949146E+01
Atom fragment info                         I   N=           3
           0           0           0
Atom residue num                           I   N=           3
           0           0           0
Nuclear spins                              I   N=           3
           2           0           0
Nuclear ZEff                               R   N=           3
 -4.55000000E+00 -5.60000000E+00 -5.60000000E+00
Nuclear QMom                               R   N=           3
  2.04400000E+00  0.00000000E+00  0.00000000E+00
Nuclear GFac                               R   N=           3
  4.03761000E-01  0.00000000E+00  0.00000000E+00
MicOpt                                     I   N=           3
          -1          -1          -1
Number of residues                         I                0
Number of secondary structures             I                0
Number of contracted shells                I                6
Number of primitive shells                 I               18
Pure/Cartesian d shells                    I                0
Pure/Cartesian f shells                    I                0
Highest angular momentum                   I                1
Largest degree of contraction              I                3
Shell types                                I   N=           6
           0          -1           0          -1           0          -1
Number of primitives per shell             I   N=           6
           3           3           3           3           3           3
Shell to atom map                          I   N=           6
           1           1           2           2           3           3
Primitive exponents                        R   N=          18
  9.91061690E+01  1.80523124E+01  4.88566024E+00  3.78045588E+00  8.78496645E-01
  2.85714374E-01  1.30709321E+02  2.38088661E+01  6.44360831E+00  5.03315132E+00
  1.16959612E+00  3.80388960E-01  1.30709321E+02  2.38088661E+01  6.44360831E+00
  5.03315132E+00  1.16959612E+00  3.80388960E-01
Contraction coefficients                   R   N=          18
  1.54328967E-01  5.35328142E-01  4.44634542E-01 -9.99672292E-02  3.99512826E-01
  7.00115469E-01  1.54328967E-01  5.35328142E-01  4.44634542E-01 -9.99672292E-02
  3.99512826E-01  7.00115469E-01  1.54328967E-01  5.35328142E-01  4.44634542E-01
 -9.99672292E-02  3.99512826E-01  7.00115469E-01
P(S=P) Contraction coefficients            R   N=          18
  0.00000000E+00  0.00000000E+00  0.00000000E+00  1.55916275E-01  6.07683719E-01
  3.91957393E-01  0.00000000E+00  0.00000000E+00  0.00000000E+00  1.55916275E-01
  6.07683719E-01  3.91957393E-01  0.00000000E+00  0.00000000E+00  0.00000000E+00
  1.55916275E-01  6.07683719E-01  3.91957393E-01
Coordinates of each shell                  R   N=          18
 -4.19867190E-04  8.38106082E-01  0.00000000E+00 -4.19867190E-04  8.38106082E-01
  0.00000000E+00  2.24691816E+00 -4.18776297E-01  0.00000000E+00  2.24691816E+00
 -4.18776297E-01  0.00000000E+00 -2.24755654E+00 -4.19135143E-01  0.00000000E+00
 -2.24755654E+00 -4.19135143E-01  0.00000000E+00
Constraint Structure                       R   N=           9
 -4.19867190E-04  8.38106082E-01  0.00000000E+00  2.24691816E+00 -4.18776297E-01
  0.00000000E+00 -2.24755654E+00 -4.19135143E-01  0.00000000E+00
Num ILSW                                   I              100
ILSW                                       I   N=         100
           1           0           0           0           2           0
           0           0           3           0       10402          -1
           0           0           0           0           2           0
           0           0           0           0           1           0
           1           1           0           0           0           0
           0           0      100000           0          -1           0
           0           0           0           0           0           0
           0           0           0           1           0           0
           0           0           1           0           0           0
           0           0           4          40           0           0
           0           0           0           0           0           0
           0           0           0           0           0           0
           0           0           0           0           0           0
           0           0           0           0           0           0
           0           0           0           0           0           0
           0           0           0           0           0           0
           0           0           0           0
Num RLSW                                   I               40
RLSW                                       R   N=          40
  1.00000000E+00  1.00000000E+00  1.00000000E+00  1.00000000E+00  1.00000000E+00
  0.00000000E+00  4.70000000E-01  0.00000000E+00  0.00000000E+00  1.00000000E+00
  0.00000000E+00  4.70000000E-01  0.00000000E+00  0.00000000E+00  1.00000000E+00
  0.00000000E+00  0.00000000E+00  1.00000000E+00  0.00000000E+00  0.00000000E+00
  0.00000000E+00  0.00000000E+00  1.00000000E+00  0.00000000E+00  0.00000000E+00
  0.00000000E+00  0.00000000E+00  1.00000000E+00  0.00000000E+00  0.00000000E+00
  0.00000000E+00  0.00000000E+00  1.00000000E+00  0.00000000E+00  0.00000000E+00
  0.00000000E+00  0.00000000E+00  0.00000000E+00  1.00000000E+00  1.00000000E+00
MxBond                                     I                2
NBond                                      I   N=           3
           2           1           1
IBond                                      I   N=           6
           2           3           1           0           1           0
RBond                                      R   N=           6
  1.00000000E+00  1.00000000E+00  1.00000000E+00  0.00000000E+00  1.00000000E+00
  0.00000000E+00
Virial Ratio                               R      2.014745072784293E+00
SCF Energy                                 R     -2.017684865622048E+02
CIS Energy                                 R     -2.018365793087810E+02
Total Energy                               R     -2.018365793087810E+02
Post-SCF wavefunction norm                 R      1.000000000000000E+00
S**2                                       R      7.641714932871526E-01
S**2 after annihilation                    R      7.500354277464469E-01
RMS Force                                  R      8.625192881603149E-07
RMS Density                                R      4.561183242824734E-10
External E-field                           R   N=          35
  0.00000000E+00  0.00000000E+00  0.00000000E+00  0.00000000E+00  0.00000000E+00
  0.00000000E+00  0.00000000E+00  0.00000000E+00  0.00000000E+00  0.00000000E+00
  0.00000000E+00  0.00000000E+00  0.00000000E+00  0.00000000E+00  0.00000000E+00
  0.00000000E+00  0.00000000E+00  0.00000000E+00  0.00000000E+00  0.00000000E+00
  0.00000000E+00  0.00000000E+00  0.00000000E+00  0.00000000E+00  0.00000000E+00
  0.00000000E+00  0.00000000E+00  0.00000000E+00  0.00000000E+00  0.00000000E+00
  0.00000000E+00  0.00000000E+00  0.00000000E+00  0.00000000E+00  0.00000000E+00
IOpCl                                      I                1
IROHF                                      I                0
Alpha Orbital Energies                     R   N=          15
 -1.88451890E+01 -1.88451881E+01 -1.42460702E+01 -1.25500011E+00 -1.11149793E+00
 -7.53015830E-01 -5.59443311E-01 -5.39738890E-01 -5.29905144E-01 -3.64325917E-01
 -3.36086869E-01 -3.33627471E-01  8.70177772E-02  3.54632769E-01  4.62487271E-01
Beta Orbital Energies                      R   N=          15
 -1.88387498E+01 -1.88387141E+01 -1.42426529E+01 -1.23822868E+00 -1.08641914E+00
 -7.13319475E-01 -5.20851894E-01 -5.17189758E-01 -4.98675659E-01 -3.21217753E-01
 -2.90996586E-01  4.95202146E-02  9.88652959E-02  3.69337771E-01  5.02500419E-01
Alpha MO coefficients                      R   N=         225
  1.23155126E-04 -1.27824752E-03  6.19926646E-03  6.26861990E-04  3.81042273E-16
 -5.70151429E-01 -1.53645448E-02  1.74006716E-03 -1.19115090E-03 -2.93035734E-16
  8.13773240E-01  2.19816953E-02  2.60143459E-03  1.58509572E-03 -2.69828205E-16
  6.99585544E-04 -7.26110522E-03 -1.09161022E-03  3.55800067E-03  1.04779174E-16
  8.13763263E-01  2.20816614E-02 -2.82938458E-03  1.36205127E-03  6.65680076E-17
  5.70137187E-01  1.55072322E-02  2.06492455E-03  8.73725024E-04  5.05483622E-17
  9.92836400E-01  3.08624234E-02  3.14171127E-07 -3.97091134E-03 -2.23671393E-16
  8.50883488E-04 -5.60993570E-03  3.81228461E-03 -1.78258624E-03  2.13680556E-16
  8.50883680E-04 -5.60993954E-03 -3.81200110E-03 -1.78319626E-03  1.10697391E-16
 -1.58699766E-01  5.13318156E-01  9.91228015E-06 -1.27788160E-01  2.81266158E-17
 -1.28211619E-01  4.39934402E-01 -1.15093776E-01  5.46876324E-02 -3.92590764E-17
 -1.28211999E-01  4.39935745E-01  1.15085320E-01  5.47061916E-02  1.22257427E-16
 -1.89391760E-07  6.85978769E-07  2.58007477E-01  2.04636828E-05  2.71875661E-16
 -1.69098778E-01  6.19317277E-01 -8.91860443E-02  6.21920973E-02 -4.29134477E-16
  1.69098503E-01 -6.19316336E-01 -8.91758522E-02 -6.22062593E-02 -4.63121378E-16
 -1.81651654E-01  7.32544624E-01 -7.70727229E-06  9.47683491E-02 -3.77853489E-16
  1.33383543E-01 -5.72080690E-01 -1.59720962E-01  1.32197397E-01  5.20543628E-16
  1.33383574E-01 -5.72080895E-01  1.59700071E-01  1.32223202E-01 -7.32231919E-16
 -5.80049311E-08  2.69575181E-07  4.96870652E-01  3.90176865E-05  5.11042550E-15
  7.81457619E-02 -3.65955371E-01 -2.79807482E-01  3.85679699E-01  4.55335009E-15
 -7.81455842E-02  3.65954589E-01 -2.79744912E-01 -3.85725546E-01  4.59012732E-15
 -3.80006492E-02  1.72833970E-01 -5.13107702E-05  6.51274332E-01 -2.23919101E-14
 -3.58888328E-02  1.70884856E-01  3.54778308E-01  2.49310382E-01 -1.24331037E-14
 -3.58890557E-02  1.70885929E-01 -3.54819805E-01  2.49253531E-01 -1.64108976E-14
 -1.23566634E-15  5.48252602E-15 -4.94208427E-15  2.14434122E-14  6.65552579E-01
 -1.88230474E-15  9.31611557E-15  1.51936004E-14  6.90219675E-15  4.47768503E-01
 -3.34599321E-16  1.87313850E-15 -7.30249752E-15  1.04364317E-14  4.47769109E-01
 -3.16576760E-07  1.54487408E-06 -1.15230999E-01 -6.78497163E-06 -4.99309690E-15
 -1.44037280E-02  7.04806327E-02  5.04135508E-01  4.95217082E-01  2.23858182E-15
  1.44036694E-02 -7.04803322E-02  5.04214116E-01 -4.95141176E-01 -9.21764869E-16
  3.12610688E-14 -1.55341045E-13  1.14063090E-16 -1.84978359E-13  3.56301018E-07
 -4.44894017E-16  1.52064947E-15 -3.18356662E-16  2.66440659E-13  7.08635425E-01
 -5.00866221E-16  1.77314784E-15 -2.13435728E-15  2.68483066E-13 -7.08635069E-01
  7.47972281E-02 -3.71951309E-01  3.47920508E-05 -4.37899248E-01 -2.16348736E-15
 -1.14789357E-03  4.54340822E-03  2.70089489E-03  6.44339671E-01 -2.94254200E-13
 -1.14784130E-03  4.54315776E-03 -2.80009503E-03  6.44334973E-01  2.96077122E-13
  2.12063916E-16 -4.29320775E-16 -3.03870612E-17 -4.95112515E-16  7.69133046E-01
  6.87149333E-17 -1.22626674E-16  2.01259986E-15  4.07797753E-15 -5.60844568E-01
 -1.13418544E-16  4.16795724E-16  1.27953570E-15 -8.04272651E-16 -5.60844555E-01
  1.30709423E-01 -7.20439513E-01 -5.82702475E-05  7.20493213E-01 -2.48256368E-16
 -5.67257783E-02  3.29495592E-01 -6.64151299E-01  1.53528770E-01  4.96939525E-16
 -5.67257047E-02  3.29495221E-01  6.64125934E-01  1.53634300E-01 -8.03391287E-16
  1.29116102E-07 -7.96655753E-07  1.04678877E+00  8.42995172E-05  2.16683085E-16
  6.07007053E-02 -3.66019259E-01  4.84498863E-01 -3.87164368E-01  1.60374815E-16
 -6.07008257E-02  3.66020052E-01  4.84438096E-01  3.87242104E-01 -6.92060781E-17
Beta MO coefficients                       R   N=         225
  3.18579811E-06 -3.29736088E-05  6.21745170E-03  1.69822122E-05 -1.08681359E-16
 -6.99447447E-01 -1.86660103E-02  2.18391300E-03 -1.36756299E-03  5.17004582E-17
  7.05845815E-01  1.88377460E-02  2.20616285E-03  1.37798084E-03  1.20432832E-16
  6.99676940E-04 -7.24145059E-03 -2.85964778E-05  3.62052171E-03  3.26641963E-16
  7.05837516E-01  1.89443612E-02 -2.47733608E-03  1.11144149E-03 -1.20230391E-16
  6.99439072E-01  1.87736045E-02  2.45717288E-03  1.09933590E-03 -9.27838070E-17
  9.92865072E-01  3.07533379E-02  3.25224272E-07 -4.10918270E-03  9.21667323E-17
  8.35874990E-04 -5.58704271E-03  3.82545486E-03 -1.80213575E-03  2.16058721E-17
  8.35875151E-04 -5.58704648E-03 -3.82516806E-03 -1.80274804E-03 -9.45528536E-17
 -1.62529238E-01  5.30489412E-01  1.05666135E-05 -1.35663521E-01 -2.45416775E-16
 -1.25041333E-01  4.26112633E-01 -1.18606277E-01  4.61920461E-02  3.87544484E-17
 -1.25041644E-01  4.26113720E-01  1.18599167E-01  4.62111267E-02 -2.12473355E-16
 -1.53529561E-07  5.65719618E-07  2.74139881E-01  2.17720442E-05 -5.52023741E-16
 -1.67586753E-01  6.12054367E-01 -9.39262377E-02  5.10175251E-02  2.23335308E-16
  1.67586515E-01 -6.12053543E-01 -9.39178869E-02 -5.10324971E-02  4.70765790E-16
 -1.74910617E-01  7.07587379E-01 -1.89371056E-06  2.23004823E-02 -5.99979364E-16
  1.38913872E-01 -5.97074828E-01 -1.86473242E-01  1.06285015E-01 -2.46374839E-16
  1.38913923E-01 -5.97075104E-01  1.86456578E-01  1.06315007E-01 -4.96160267E-16
  5.01770834E-16 -1.99939521E-15 -2.95146309E-15 -5.93716038E-15  6.74244361E-01
 -3.20735000E-16  8.14161144E-16 -2.11780334E-15 -4.42197506E-15  4.41370121E-01
  5.97702645E-16 -3.51828689E-15  5.12526427E-15  5.18790114E-16  4.41371215E-01
 -2.00185640E-07  9.00251991E-07  5.49632892E-01  4.49307790E-05  5.58019110E-15
  8.32461407E-02 -3.92595910E-01 -3.59773798E-01  2.55233013E-01  1.62165446E-15
 -8.32461233E-02  3.92595891E-01 -3.59734297E-01 -2.55289741E-01  9.87657042E-16
 -6.23182189E-02  2.76045426E-01 -5.18027357E-05  6.35222660E-01  6.73422955E-15
 -2.20202964E-02  1.07296976E-01  3.55791425E-01  2.54286830E-01  1.79376869E-15
 -2.20199977E-02  1.07295568E-01 -3.55830987E-01  2.54230816E-01  5.50523732E-15
 -2.81040798E-16  2.72199298E-15 -1.16110865E-15  7.63477903E-15  1.17499177E-06
 -3.09673670E-16  1.26511072E-15 -4.50806426E-15 -1.07233500E-14  7.08635141E-01
  2.37140766E-17  5.59678707E-17 -3.75167321E-15 -1.13782622E-15 -7.08635353E-01
  8.53029974E-08 -4.28777415E-07  1.05448489E-01  7.75969998E-06  8.97052740E-15
  6.10639333E-03 -3.67809394E-02  4.82229497E-01  5.21431900E-01  1.07647697E-15
 -6.10638861E-03  3.67809095E-02  4.82312488E-01 -5.21353039E-01 -1.16315052E-14
  7.06446353E-02 -3.52044472E-01  3.61022185E-05 -4.53384788E-01  6.05743794E-16
 -1.60628787E-03  3.69970283E-03  1.89329255E-02  6.41637487E-01  6.65597432E-15
 -1.60627171E-03  3.69960947E-03 -1.90369735E-02  6.41635824E-01 -8.45158097E-15
  1.09434328E-16 -3.31385033E-16 -2.45953235E-15  6.68102651E-16  7.61525062E-01
 -5.14936518E-16  2.17501017E-15 -5.28151912E-15 -6.62489897E-15 -5.65894054E-01
  1.12291592E-16 -1.58420377E-15 -3.72255494E-15  5.16137192E-15 -5.65892956E-01
  1.27929459E-01 -7.10734086E-01 -5.85887881E-05  7.29634607E-01 -6.65120184E-16
 -5.69113694E-02  3.30182730E-01 -6.55701227E-01  1.77687235E-01 -8.18347447E-16
 -5.69113518E-02  3.30182679E-01  6.55672504E-01  1.77791331E-01  1.70088113E-15
  8.99521918E-08 -5.79993992E-07  1.01691976E+00  8.16932410E-05 -1.90881430E-17
  5.88932915E-02 -3.55425731E-01  4.52032070E-01 -4.56200523E-01 -3.69734999E-16
 -5.88933851E-02  3.55426351E-01  4.51959770E-01  4.56273124E-01 -3.38266042E-16
Total SCF Density                          R   N=         120
  2.09762082E+00 -4.14942499E-01  1.82864179E+00  6.73138375E-06 -3.19516329E-05
  7.15173234E-01 -8.38918265E-02  3.98125454E-01 -2.78176553E-05  1.06369323E+00
 -6.30546318E-05  2.99236350E-04 -7.65953551E-05  1.24842334E-04  8.97565717E-01
 -2.54117042E-03  4.17857724E-02 -1.14768996E-02  1.73018644E-02  8.18764412E-06
  2.11561521E+00  4.53501127E-02 -3.32840847E-01 -8.22747708E-02 -3.92003949E-03
 -3.75751438E-05 -4.94105580E-01  2.15365713E+00  7.12995536E-02 -2.12148180E-01
 -3.92782780E-01  4.67306373E-01 -6.41579699E-05 -7.00656200E-02  3.48847868E-01
  1.05131434E+00 -3.94743253E-02  9.81183786E-02  3.59848131E-01  4.34384315E-02
 -2.63640066E-04  3.62199048E-02 -1.78293953E-01  4.18955853E-01  1.31339432E+00
  2.67862405E-07 -1.52605007E-05 -1.45054490E-04 -2.18393890E-04  5.95605080E-01
 -2.23075878E-06  1.26429210E-05  1.68439235E-04  1.10900690E-04  1.39963315E+00
 -2.54117240E-03  4.17857736E-02  1.14741147E-02  1.73036871E-02  1.78237426E-05
  9.47485722E-04 -7.46632987E-03 -1.32627231E-02 -2.44313082E-02 -2.39362760E-05
  2.11561521E+00  4.53501152E-02 -3.32840826E-01  8.22754343E-02 -3.90686455E-03
  3.16900510E-05 -7.46632970E-03  4.71583063E-02  5.15830244E-02  1.33357519E-01
  1.21908614E-04 -4.94105587E-01  2.15365715E+00 -7.12932415E-02  2.12132566E-01
 -3.92650171E-01 -4.67375525E-01 -7.66692121E-04  1.32666409E-02 -5.16044107E-02
  3.71137524E-01  1.63109459E-01  5.34618733E-04  7.00598081E-02 -3.48819247E-01
  1.05144861E+00 -3.94856915E-02  9.81521780E-02 -3.59917408E-01  4.33062366E-02
 -5.66511892E-04 -2.44291904E-02  1.33349287E-01 -1.63024809E-01 -1.61579637E-01
  2.67577601E-04  3.62310892E-02 -1.78349635E-01 -4.18997867E-01  1.31326088E+00
 -5.96244599E-05  1.62822718E-04 -6.86049603E-04 -6.11798875E-04  5.95604769E-01
 -1.27902112E-05  7.85650487E-05  2.89459859E-04  4.05049291E-04 -6.09022352E-01
  5.66895410E-05 -2.80720185E-04 -4.61381918E-04 -2.40755578E-04  1.39963237E+00
Spin SCF Density                           R   N=         120
  4.27165469E-03 -2.16256305E-02  1.10045065E-01  2.63262354E-06 -1.28262218E-05
 -6.16409540E-02 -3.28626704E-02  1.60107068E-01 -2.24796883E-05  2.18813741E-01
 -2.46936445E-05  1.20308055E-04 -2.11382835E-05  1.73173873E-04 -1.16451356E-02
  2.04748972E-05  1.46857324E-04 -3.65108606E-03  7.39791481E-05 -1.48833741E-06
 -1.92484170E-04 -5.66701558E-04  1.40697743E-03  2.17053519E-02  1.83791607E-03
  1.05540838E-05  1.17922807E-03 -7.17562999E-03  4.26486235E-03 -1.91169526E-02
 -4.74872183E-02 -8.49405676E-03 -2.67830766E-05 -3.17581296E-03  1.90757860E-02
 -4.12004305E-02  4.79920480E-02 -2.41565220E-01 -5.86182483E-02 -2.71883234E-01
 -2.29575159E-04 -5.80003012E-03  3.08918038E-02 -2.10313015E-02  4.77923880E-01
  3.78878443E-05 -1.89715542E-04 -6.41718551E-05 -2.08449117E-04  4.21884942E-04
 -5.68924532E-06  3.12091803E-05 -3.53164272E-05  3.46604683E-04  5.68899734E-03
  2.04752146E-05  1.46855617E-04  3.65107735E-03  7.45659812E-05  1.59957617E-06
  2.39831003E-04 -1.39166564E-03  2.39976619E-03  9.31968345E-04  1.70719771E-06
 -1.92484757E-04 -5.66702997E-04  1.40698516E-03 -2.17056607E-02  1.83443035E-03
 -7.79296478E-06 -1.39166555E-03  8.10979988E-03 -1.42686721E-02 -9.97975786E-03
 -1.34927484E-05  1.17923109E-03 -7.17564512E-03 -4.27253854E-03  1.91555918E-02
 -4.74979881E-02  8.52988424E-03 -1.39872854E-05 -2.39991479E-03  1.42702653E-02
 -1.96149900E-02 -1.62994740E-02 -2.27572224E-05  3.17674663E-03 -1.90807577E-02
 -4.12072139E-02  4.79913539E-02 -2.41562104E-01  5.86542435E-02 -2.71872349E-01
 -1.79675401E-04  9.31583372E-04 -9.97746714E-03  1.62385382E-02  3.61475662E-01
  2.74263904E-04 -5.79952477E-03  3.08887688E-02  2.09483567E-02  4.77930238E-01
  3.42481525E-05 -1.73379063E-04  2.39661355E-05 -2.00851219E-04  4.21790389E-04
 -3.06273796E-07 -1.50804635E-06  1.70555067E-06  2.60537550E-04  5.68905036E-03
 -3.02829208E-06  1.52217137E-05 -3.77695644E-06  3.63249817E-04  5.68922743E-03
Total CI Rho(1) Density                    R   N=         120
  2.09801013E+00 -4.16904415E-01  1.83852871E+00  6.89479661E-06 -3.27440889E-05
  7.14558092E-01 -8.59231913E-02  4.07972069E-01 -2.90636639E-05  1.08150830E+00
 -6.45978251E-05  3.06718788E-04 -3.89343734E-04 -4.20178005E-04  1.64062465E+00
 -2.56766779E-03  4.19221977E-02 -1.15009485E-02  1.71569881E-02  8.06116403E-06
  2.11560841E+00  4.54732312E-02 -3.33500025E-01 -8.21012642E-02 -2.93140231E-03
 -3.67139686E-05 -4.94097814E-01  2.15372911E+00  7.12055605E-02 -2.11525559E-01
 -3.95933555E-01  4.64395244E-01  1.61815983E-04 -7.02749492E-02  3.49795221E-01
  1.03648185E+00 -3.62257914E-02  8.20485154E-02  3.53944676E-01  2.18075532E-02
  1.27898906E-04  3.57358927E-02 -1.75859434E-01  4.01627872E-01  1.32213008E+00
  2.74153584E-06 -2.74227436E-05  7.87994470E-05  1.74211975E-04  4.94770728E-02
 -2.68672358E-06  1.48828333E-05  2.47670455E-04  2.86832854E-04  1.16503175E+00
 -2.56766987E-03  4.19221994E-02  1.14981868E-02  1.71588151E-02  1.77315233E-05
  9.65079231E-04 -7.55896211E-03 -1.28046568E-02 -2.39513567E-02 -2.33868551E-05
  2.11560841E+00  4.54732342E-02 -3.33500006E-01  8.21017696E-02 -2.91825818E-03
  3.23232988E-05 -7.55896194E-03  4.76630085E-02  4.91628785E-02  1.30580730E-01
  1.18821354E-04 -4.94097821E-01  2.15372913E+00 -7.11997657E-02  2.11512504E-01
 -3.95802357E-01 -4.64461802E-01 -5.36307369E-04  1.28084980E-02 -4.91838214E-02
  3.53337238E-01  1.43035341E-01  7.58049151E-05  7.02692149E-02 -3.49766990E-01
  1.03661056E+00 -3.62371450E-02  8.20822278E-02 -3.54011324E-01  2.16767919E-02
 -1.69888901E-04 -2.39493117E-02  1.30572883E-01 -1.42961015E-01 -1.10650908E-01
 -4.64866505E-04  3.57471096E-02 -1.75915262E-01 -4.01673776E-01  1.32200214E+00
 -5.71902121E-05  1.50705801E-04 -4.53234972E-04 -2.16089914E-04  4.94761954E-02
 -1.26090604E-05  7.74289837E-05 -1.38865205E-04 -3.44982691E-04  4.28428178E-01
  5.64103323E-05 -2.79264003E-04 -3.55836020E-04 -5.09689313E-05  1.16503078E+00
Spin CI Rho(1) Density                     R   N=         120
  3.96342684E-03 -2.01072420E-02  1.02566665E-01  2.43173388E-06 -1.18189370E-05
 -5.93501468E-02 -3.03607029E-02  1.47560017E-01 -2.09720228E-05  2.02838348E-01
 -2.28021806E-05  1.10822399E-04 -7.28795772E-05  6.67697203E-05  1.13840727E-01
  1.32993606E-05  1.86563941E-04 -3.43961506E-03 -3.36434386E-05 -1.47564365E-06
 -1.70944643E-04 -4.89842837E-04  9.95705589E-04  2.06000171E-02  2.17606598E-03
  1.03188359E-05  1.05829405E-03 -6.51045986E-03  3.94699099E-03 -1.74869580E-02
 -4.22128547E-02 -7.97711036E-03  1.26721921E-05 -2.80508784E-03  1.68788055E-02
 -2.52737507E-02  4.48184115E-02 -2.25796970E-01 -5.31374122E-02 -2.49052285E-01
 -1.44218020E-04 -5.38160169E-03  2.88730938E-02 -5.15776597E-03  4.68625316E-01
  3.53646326E-05 -1.77160391E-04 -2.11697624E-05 -1.25383998E-04 -8.67845002E-02
 -5.22447176E-06  2.87975040E-05  4.65015757E-07  3.76941391E-04 -3.51717630E-02
  1.32997297E-05  1.86561976E-04  3.43962338E-03 -3.30911691E-05  1.42474413E-06
  2.28112553E-04 -1.33048810E-03  2.12196595E-03  5.53323546E-04  1.30173006E-06
 -1.70945194E-04 -4.89844579E-04  9.95714791E-04 -2.06003789E-02  2.17276104E-03
 -7.04890096E-06 -1.33048801E-03  7.79164633E-03 -1.26293338E-02 -7.53440758E-03
 -1.09412432E-05  1.05829688E-03 -6.51047395E-03 -3.95416116E-03  1.75230835E-02
 -4.22226608E-02  8.01009399E-03  2.46768231E-05 -2.12205417E-03  1.26305369E-02
 -4.90486862E-03  3.07570913E-03 -7.00567444E-05  2.80595404E-03 -1.68834511E-02
 -2.52754445E-02  4.48177708E-02 -2.25794127E-01  5.31705274E-02 -2.49042383E-01
 -9.93897216E-05  5.52982696E-04 -7.53237726E-03 -3.12596051E-03  3.09934483E-01
  1.05967514E-04 -5.38115466E-03  2.88704047E-02  5.07880320E-03  4.68626651E-01
  3.19840225E-05 -1.62147228E-04  5.86731477E-05 -1.18384047E-04 -8.67844566E-02
 -4.73227842E-07 -3.63656488E-07 -7.48085196E-05  1.08071012E-04  1.67344036E-01
 -2.86045132E-06  1.45788718E-05  8.06946418E-06  3.80286158E-04 -3.51717618E-02
Total CI Density                           R   N=         120
  2.09081841E+00 -3.85527511E-01  1.70800121E+00  6.54201380E-06 -3.11801480E-05
  4.89837179E-01 -8.13216333E-02  3.87417199E-01 -2.15660451E-05  7.56706342E-01
 -6.11332585E-05  2.91236079E-04 -5.75572481E-04 -8.28095780E-04  1.85856427E+00
 -1.10925717E-03  3.58333456E-02 -2.24383308E-02  2.46639373E-02  9.09364502E-06
  2.11460647E+00  3.74228164E-02 -2.99853830E-01 -1.07954283E-02 -5.35299526E-02
 -4.47000010E-05 -4.87719825E-01  2.11319785E+00  7.33900849E-02 -2.01403547E-01
 -3.90381581E-01  4.62102815E-01  1.64320053E-04 -6.79156239E-02  3.39939533E-01
  1.18120721E+00 -5.31706364E-02  1.44706823E-01  3.39497357E-01  7.86946985E-02
  1.68191037E-04  3.71584848E-02 -1.81376217E-01  3.86778236E-01  1.47436210E+00
 -9.10221357E-06  2.40483353E-05  7.24341183E-05  2.19789752E-04  4.44958721E-02
 -6.14624703E-07  6.53519429E-06  3.42644364E-04  4.75798380E-04  1.05781243E+00
 -1.10926384E-03  3.58333712E-02  2.24343903E-02  2.46675860E-02  2.79783496E-05
  9.87322284E-04 -7.98347342E-03 -1.29790932E-02 -1.91031458E-02 -1.98143050E-05
  2.11460647E+00  3.74228413E-02 -2.99853925E-01  1.08038736E-02 -5.35286482E-02
 -3.57239940E-05 -7.98347345E-03  5.19106443E-02  4.97310474E-02  1.08843662E-01
  1.02715731E-04 -4.87719820E-01  2.11319778E+00 -7.33813130E-02  2.01379091E-01
 -3.90253242E-01 -4.62178702E-01 -5.30430553E-04  1.29821228E-02 -4.97483143E-02
  3.11511294E-01  5.83066206E-02  3.97753596E-05  6.79096331E-02 -3.39910297E-01
  1.18133183E+00 -5.31825412E-02  1.44739927E-01 -3.39571481E-01  7.85676810E-02
 -1.16937531E-04 -1.91010090E-02  1.08835372E-01 -5.82446330E-02 -6.42588021E-02
 -3.14130787E-04  3.71692775E-02 -1.81430204E-01 -3.86823412E-01  1.47423508E+00
 -7.08464737E-05  1.93561014E-04 -4.37876669E-04 -1.68532260E-04  4.44929297E-02
 -8.88960733E-06  6.08391011E-05 -4.76066568E-05 -2.65170277E-04  3.21210256E-01
  5.64790056E-05 -2.79219238E-04 -2.38450458E-04  1.49750766E-04  1.05781445E+00
Spin CI Density                            R   N=         120
  9.99732185E-03 -4.82810206E-02  2.32958646E-01  4.34776512E-06 -2.06353936E-05
 -1.46335440E-02 -5.47267214E-02  2.59531764E-01 -2.86083701E-05  3.44928738E-01
 -4.10833011E-05  1.94829818E-04 -2.06766598E-04 -9.96700619E-05  4.77059811E-01
 -5.82283195E-04  2.89964459E-03 -1.44713208E-03  3.02556055E-03  1.66309710E-06
 -1.30500627E-04  2.44853111E-03 -1.24866673E-02  7.37529336E-03 -9.13363635E-03
 -3.75249244E-06  6.50128040E-04 -3.00105805E-03 -2.78239604E-03  1.35917281E-02
 -1.38769375E-02  3.72634934E-02  6.35738085E-05 -2.35968328E-03  1.23209252E-02
 -2.39866573E-02  6.65314628E-02 -3.18470309E-01 -3.19693468E-02 -2.95373854E-01
 -1.61211820E-04 -8.61493076E-03  4.32822739E-02 -6.70231932E-02  3.48843696E-01
  4.88550864E-05 -2.33749616E-04  1.14328248E-05 -1.32469544E-04 -9.81909033E-02
 -7.47474017E-06  3.77514567E-05  2.90866163E-05  3.94338416E-04 -2.13066095E-01
 -5.82284143E-04  2.89965589E-03  1.44661670E-03  3.02574212E-03  2.88217489E-06
  1.06586366E-04 -6.23335524E-04 -2.25257208E-04 -5.78182642E-03 -4.44991857E-06
 -1.30491451E-04  2.44852602E-03 -1.24866744E-02 -7.37372414E-03 -9.13460465E-03
 -9.97293615E-06 -6.23334885E-04  3.73461578E-03  5.91914463E-04  2.41975484E-02
  1.84875923E-05  6.50083505E-04 -3.00085255E-03  2.77163669E-03 -1.35402626E-02
 -1.38762713E-02 -3.72170819E-02  7.60885727E-06  2.26162717E-04 -5.95630933E-04
  3.07750689E-02  8.40439410E-02  8.05287795E-05  2.36099625E-03 -1.23275543E-02
 -2.40074101E-02  6.65320502E-02 -3.18473195E-01  3.20143484E-02 -2.95376250E-01
 -1.34540114E-04 -5.78179488E-03  2.41974323E-02 -8.40810985E-02  2.56688344E-01
  1.65596155E-04 -8.61454627E-03  4.32802212E-02  6.69616620E-02  3.48869045E-01
  5.10956561E-05 -2.44689063E-04  5.93926729E-05 -1.63627627E-04 -9.81984068E-02
 -4.24426083E-06  1.79108638E-05 -4.59057902E-05  2.35747187E-04 -1.05447196E-02
 -5.46138661E-06  2.72358838E-05  1.29597666E-04  4.50123909E-04 -2.13055029E-01
Anisotropic Hyperfine tensors              R   N=          18
 -7.86247186E-01 -8.06668886E-05  2.35817424E-01 -5.62103116E-04 -2.37447145E-04
  5.50429762E-01 -1.91199121E-01 -3.13711352E-01  1.27520763E+00  1.39462603E-04
  1.64210126E-03 -1.08400851E+00 -1.91318945E-01  3.13468714E-01  1.27530297E+00
  6.10068796E-04  1.90351686E-03 -1.08398403E+00
Isotropic Hyperfine splittings             R   N=           3
  4.67684695E-01 -9.28954376E-03 -9.28889629E-03
QEq coupling tensors                       R   N=          18
 -1.43326014E+00 -5.73293395E-05 -7.23514680E-01 -1.50964540E-03 -2.16465327E-03
  2.15677482E+00 -1.31833440E-01  1.54144334E+00  9.87275598E-01  1.46298664E-03