NO2
Freq      ULC-BLYP                                                    STO-3G              
Number of atoms                            I                3
Info1-9                                    I   N=           9
          14          14        1001           0           0         101
           6          18         202
Charge                                     I                0
Multiplicity                               I                2
Number of electrons                        I               23
Number of alpha electrons                  I               12
Number of beta electrons                   I               11
Number of basis functions                  I               15
Number of independent functions            I               15
Number of point charges in /Mol/           I                0
Number of translation vectors              I                0
Atomic numbers                             I   N=           3
           7           8           8
Nuclear charges                            R   N=           3
  7.00000000E+00  8.00000000E+00  8.00000000E+00
Current cartesian coordinates              R   N=           9
  0.00000000E+00  1.55679985E+00  0.00000000E+00  1.38660545E+00 -7.78398981E-01
  0.00000000E+00 -1.38660545E+00 -7.78398981E-01  0.00000000E+00
Number of symbols in /Mol/                 I                0
Force Field                                I                0
Atom Types                                 C   N=           3
                                    
Int Atom Types                             I   N=           3
           0           0           0
MM charges                                 R   N=           3
  0.00000000E+00  0.00000000E+00  0.00000000E+00
Integer atomic weights                     I   N=           3
          14          16          16
Real atomic weights                        R   N=           3
  1.40030740E+01  1.59949146E+01  1.59949146E+01
Atom fragment info                         I   N=           3
           0           0           0
Atom residue num                           I   N=           3
           0           0           0
Nuclear spins                              I   N=           3
           2           0           0
Nuclear ZEff                               R   N=           3
 -4.55000000E+00 -5.60000000E+00 -5.60000000E+00
Nuclear QMom                               R   N=           3
  2.04400000E+00  0.00000000E+00  0.00000000E+00
Nuclear GFac                               R   N=           3
  4.03761000E-01  0.00000000E+00  0.00000000E+00
MicOpt                                     I   N=           3
          -1          -1          -1
Number of residues                         I                0
Number of secondary structures             I                0
Number of contracted shells                I                6
Number of primitive shells                 I               18
Pure/Cartesian d shells                    I                0
Pure/Cartesian f shells                    I                0
Highest angular momentum                   I                1
Largest degree of contraction              I                3
Shell types                                I   N=           6
           0          -1           0          -1           0          -1
Number of primitives per shell             I   N=           6
           3           3           3           3           3           3
Shell to atom map                          I   N=           6
           1           1           2           2           3           3
Primitive exponents                        R   N=          18
  9.91061690E+01  1.80523124E+01  4.88566024E+00  3.78045588E+00  8.78496645E-01
  2.85714374E-01  1.30709321E+02  2.38088661E+01  6.44360831E+00  5.03315132E+00
  1.16959612E+00  3.80388960E-01  1.30709321E+02  2.38088661E+01  6.44360831E+00
  5.03315132E+00  1.16959612E+00  3.80388960E-01
Contraction coefficients                   R   N=          18
  1.54328967E-01  5.35328142E-01  4.44634542E-01 -9.99672292E-02  3.99512826E-01
  7.00115469E-01  1.54328967E-01  5.35328142E-01  4.44634542E-01 -9.99672292E-02
  3.99512826E-01  7.00115469E-01  1.54328967E-01  5.35328142E-01  4.44634542E-01
 -9.99672292E-02  3.99512826E-01  7.00115469E-01
P(S=P) Contraction coefficients            R   N=          18
  0.00000000E+00  0.00000000E+00  0.00000000E+00  1.55916275E-01  6.07683719E-01
  3.91957393E-01  0.00000000E+00  0.00000000E+00  0.00000000E+00  1.55916275E-01
  6.07683719E-01  3.91957393E-01  0.00000000E+00  0.00000000E+00  0.00000000E+00
  1.55916275E-01  6.07683719E-01  3.91957393E-01
Coordinates of each shell                  R   N=          18
  0.00000000E+00  1.55679985E+00  0.00000000E+00  0.00000000E+00  1.55679985E+00
  0.00000000E+00  1.38660545E+00 -7.78398981E-01  0.00000000E+00  1.38660545E+00
 -7.78398981E-01  0.00000000E+00 -1.38660545E+00 -7.78398981E-01  0.00000000E+00
 -1.38660545E+00 -7.78398981E-01  0.00000000E+00
Constraint Structure                       R   N=           9
  0.00000000E+00  1.55679985E+00  0.00000000E+00  1.38660545E+00 -7.78398981E-01
  0.00000000E+00 -1.38660545E+00 -7.78398981E-01  0.00000000E+00
Num ILSW                                   I              100
ILSW                                       I   N=         100
           1           0           0           0           2           0
           0           0           3           0       10402          -1
           0           0           0           0           2           0
           0           0           0           0           1           0
           1           1           0           0           0           0
           0           0      100000           0          -1           0
           0           0           0           0           0           0
           0           0           0           1           0           0
           0           0           1           0           0           0
           0           0           4          40           0           0
           0           0           0           0           0           0
           0           0           0           0           0           0
           0           0           0           0           0           0
           0           0           0           0           0           0
           0           0           0           0           0           0
           0           0           0           0           0           0
           0           0           0           0
Num RLSW                                   I               40
RLSW                                       R   N=          40
  1.00000000E+00  1.00000000E+00  1.00000000E+00  1.00000000E+00  1.00000000E+00
  0.00000000E+00  4.70000000E-01  0.00000000E+00  0.00000000E+00  1.00000000E+00
  0.00000000E+00  4.70000000E-01  0.00000000E+00  0.00000000E+00  1.00000000E+00
  0.00000000E+00  0.00000000E+00  1.00000000E+00  0.00000000E+00  0.00000000E+00
  0.00000000E+00  0.00000000E+00  1.00000000E+00  0.00000000E+00  0.00000000E+00
  0.00000000E+00  0.00000000E+00  1.00000000E+00  0.00000000E+00  0.00000000E+00
  0.00000000E+00  0.00000000E+00  1.00000000E+00  0.00000000E+00  0.00000000E+00
  0.00000000E+00  0.00000000E+00  0.00000000E+00  1.00000000E+00  1.00000000E+00
MxBond                                     I                2
NBond                                      I   N=           3
           2           2           2
IBond                                      I   N=           6
           2           3           1           3           1           2
RBond                                      R   N=           6
  1.00000000E+00  1.00000000E+00  1.00000000E+00  1.00000000E+00  1.00000000E+00
  1.00000000E+00
Virial Ratio                               R      2.013366866446797E+00
SCF Energy                                 R     -2.017670688863433E+02
Total Energy                               R     -2.017670688863433E+02
S**2                                       R      7.536559568774806E-01
S**2 after annihilation                    R      7.500058378062019E-01
RMS Force                                  R      7.295269319315529E-05
RMS Density                                R      5.411561972690493E-10
External E-field                           R   N=          35
  0.00000000E+00  0.00000000E+00  0.00000000E+00  0.00000000E+00  0.00000000E+00
  0.00000000E+00  0.00000000E+00  0.00000000E+00  0.00000000E+00  0.00000000E+00
  0.00000000E+00  0.00000000E+00  0.00000000E+00  0.00000000E+00  0.00000000E+00
  0.00000000E+00  0.00000000E+00  0.00000000E+00  0.00000000E+00  0.00000000E+00
  0.00000000E+00  0.00000000E+00  0.00000000E+00  0.00000000E+00  0.00000000E+00
  0.00000000E+00  0.00000000E+00  0.00000000E+00  0.00000000E+00  0.00000000E+00
  0.00000000E+00  0.00000000E+00  0.00000000E+00  0.00000000E+00  0.00000000E+00
IOpCl                                      I                1
IROHF                                      I                0
Alpha Orbital Energies                     R   N=          15
 -1.89010805E+01 -1.88998901E+01 -1.41770212E+01 -1.36976224E+00 -9.82104280E-01
 -8.56428129E-01 -5.77493982E-01 -5.32311215E-01 -4.84563048E-01 -4.66245233E-01
 -3.38986746E-01 -3.30097531E-01  1.96126694E-01  2.57839513E-01  3.46545136E-01
Beta Orbital Energies                      R   N=          15
 -1.89000922E+01 -1.88988737E+01 -1.41640987E+01 -1.35721638E+00 -9.76843644E-01
 -8.11252575E-01 -5.25828913E-01 -5.13407791E-01 -4.74492547E-01 -4.48533313E-01
 -3.16494077E-01  1.19284088E-01  2.03885219E-01  2.71832878E-01  3.70968444E-01
Alpha MO coefficients                      R   N=         225
  2.44139297E-13 -2.38897817E-12 -3.49776484E-03  2.03839097E-12  1.72556437E-16
  7.02301406E-01  2.06872983E-02 -4.10860939E-03  1.12301132E-03  1.61575306E-16
 -7.02301406E-01 -2.06872983E-02 -4.10860939E-03 -1.12301132E-03  1.71337827E-16
  5.59784892E-04 -5.47810033E-03  1.52572343E-12  4.67424117E-03 -1.63063195E-17
  7.02874977E-01  1.72367100E-02 -1.67689402E-04  2.12304448E-03  3.17847248E-17
  7.02874977E-01  1.72367100E-02  1.67689405E-04  2.12304448E-03  5.32072271E-17
  9.92850065E-01  3.01886923E-02  7.02415019E-16 -5.46860709E-03  6.38441104E-17
  7.55436783E-04 -4.72787535E-03  1.45641131E-03 -3.63884267E-03  1.76635595E-16
  7.55436783E-04 -4.72787535E-03 -1.45641131E-03 -3.63884267E-03 -1.31250898E-16
 -1.08214242E-01  3.34085503E-01  8.26433097E-14 -1.54821176E-01  3.34646110E-16
 -1.40231876E-01  4.72018600E-01 -1.41493402E-01  7.51094016E-02 -1.47101057E-16
 -1.40231876E-01  4.72018600E-01  1.41493402E-01  7.51094016E-02 -1.16759557E-16
  2.15065288E-13 -7.93286169E-13  1.96342091E-01  1.85579232E-13  4.70891083E-15
 -1.84191816E-01  7.24336321E-01  4.06378690E-02  9.49879600E-02  2.08529918E-15
  1.84191816E-01 -7.24336321E-01  4.06378690E-02 -9.49879600E-02  2.64845794E-15
 -2.14544121E-01  8.39752608E-01  3.51037292E-13 -4.23213686E-02  3.94454700E-16
  9.49099833E-02 -4.08366727E-01  6.76914526E-02  2.20986792E-01 -3.62205245E-16
  9.49099833E-02 -4.08366727E-01 -6.76914526E-02  2.20986792E-01 -2.31012925E-16
  6.14026763E-17 -4.50348378E-16  1.46031801E-15 -1.01689406E-15  5.92523485E-01
  1.89510751E-15 -7.40392465E-15 -3.32654057E-15  2.48026944E-15  4.92485290E-01
 -1.16801001E-15  4.23280912E-15  2.13259265E-15 -2.65355229E-15  4.92485290E-01
 -5.05282191E-02  2.34666915E-01 -1.40703333E-12  3.43609003E-01  3.21462909E-15
 -6.90872144E-02  3.14541554E-01  5.32993608E-01 -1.01105459E-01  1.83521568E-15
 -6.90872144E-02  3.14541554E-01 -5.32993608E-01 -1.01105459E-01  2.01726666E-15
  4.34511777E-13 -1.84997207E-12  5.93683865E-01 -1.40485819E-12 -2.72159661E-15
  5.85118870E-02 -2.64819266E-01 -1.26844928E-01  4.62055344E-01 -3.81312047E-15
 -5.85118870E-02  2.64819266E-01 -1.26844928E-01 -4.62055344E-01 -2.44326237E-15
 -1.00208379E-01  4.40019156E-01  2.86697324E-12  5.04701603E-01 -2.84023910E-15
  1.53450578E-02 -5.77307772E-02 -2.93657077E-01 -4.25789769E-01  7.19747175E-16
  1.53450578E-02 -5.77307772E-02  2.93657077E-01 -4.25789769E-01  6.07645947E-16
  3.00244559E-17  4.44245170E-17  2.11470865E-15 -3.98865693E-18 -1.85800369E-11
 -2.09407470E-16  4.70849317E-16 -2.34959130E-15 -1.05521897E-15  7.36118252E-01
 -5.34332871E-17 -4.27527195E-16 -2.54374394E-15  1.01802923E-15 -7.36118252E-01
 -2.52271802E-16  5.56975176E-16 -8.48287766E-16  1.14660923E-15  8.19239717E-01
  2.83101085E-16 -1.18132014E-15 -4.76373511E-16 -1.38748560E-15 -4.81576556E-01
  2.58733351E-17  3.91594861E-16  1.72419340E-15 -9.85664683E-16 -4.81576556E-01
  3.98207581E-14 -2.18053421E-13 -5.09451482E-01  4.96204181E-13 -1.23454950E-15
  1.78618176E-02 -8.32244540E-02  5.80973345E-01  4.62313620E-01  2.43375701E-15
 -1.78618176E-02  8.32244540E-02  5.80973345E-01 -4.62313620E-01 -2.85038558E-15
 -1.47114034E-13  7.87203458E-13  6.88883139E-01 -1.52100136E-12 -4.24488692E-16
  6.42503650E-02 -3.44300681E-01  5.87349527E-01 -3.76709314E-01  6.77909849E-16
 -6.42503650E-02  3.44300681E-01  5.87349527E-01  3.76709314E-01 -8.63885074E-17
  9.78055635E-02 -5.26463420E-01  1.23990633E-12  9.37526854E-01  7.38623019E-17
 -4.88557721E-02  2.92136143E-01 -2.17364975E-01  5.60646928E-01  5.23838862E-17
 -4.88557721E-02  2.92136143E-01  2.17364975E-01  5.60646928E-01 -2.31469286E-18
Beta MO coefficients                       R   N=         225
  2.40309462E-13 -2.29702542E-12 -3.48619391E-03  1.97119605E-12  4.65214316E-17
  7.02307718E-01  2.06608498E-02 -4.10390101E-03  1.12342759E-03 -1.59157145E-16
 -7.02307718E-01 -2.06608498E-02 -4.10390101E-03 -1.12342759E-03 -1.93553051E-16
  5.67231620E-04 -5.42232949E-03  1.47703379E-12  4.65313637E-03 -5.26216716E-17
  7.02883727E-01  1.71985996E-02 -1.65114756E-04  2.11743500E-03  1.79453383E-16
  7.02883728E-01  1.71985997E-02  1.65114760E-04  2.11743500E-03 -1.22959191E-16
  9.93065313E-01  2.93152779E-02  3.99593614E-16 -5.31693954E-03  2.39272041E-16
  7.14002574E-04 -4.55780817E-03  1.40915607E-03 -3.52405647E-03  2.87224810E-16
  7.14002574E-04 -4.55780817E-03 -1.40915607E-03 -3.52405647E-03 -3.67516908E-16
 -9.91980712E-02  2.97991881E-01  7.97829106E-14 -1.49012362E-01  1.57923303E-16
 -1.43527638E-01  4.86993027E-01 -1.45463780E-01  7.66794034E-02 -3.84488087E-16
 -1.43527638E-01  4.86993027E-01  1.45463780E-01  7.66794034E-02  2.67917042E-16
  1.57504683E-13 -5.62001717E-13  1.85526580E-01  1.74643937E-13  3.07348219E-16
 -1.84840500E-01  7.27651088E-01  4.13151305E-02  9.64012495E-02  3.41596199E-16
  1.84840500E-01 -7.27651088E-01  4.13151305E-02 -9.64012495E-02  4.19059615E-16
 -2.06679555E-01  8.00687669E-01  3.19242011E-13 -6.22550258E-02  1.40086937E-16
  9.01726207E-02 -3.91093877E-01  5.76892818E-02  2.65539450E-01 -1.20632943E-15
  9.01726207E-02 -3.91093877E-01 -5.76892818E-02  2.65539450E-01  1.17530677E-15
 -4.57614373E-02  2.11857441E-01 -1.08466890E-12  2.77360005E-01 -4.97250228E-16
 -6.80392023E-02  3.07917137E-01  5.64519894E-01 -5.30123068E-02 -1.89192845E-15
 -6.80392023E-02  3.07917137E-01 -5.64519894E-01 -5.30123068E-02  3.41327137E-17
  3.03143890E-16 -9.52431322E-16  3.09093623E-14 -5.63019755E-16  3.66456561E-01
  3.28868860E-15 -1.44162461E-14 -5.23003036E-15  3.00114572E-14  5.98128687E-01
 -3.52533693E-15  1.56168987E-14 -7.98369126E-15 -2.82049953E-14  5.98128687E-01
  4.58500897E-13 -1.94045604E-12  5.50516724E-01 -1.26534303E-12 -2.19440837E-14
  5.53382688E-02 -2.49234825E-01 -1.29553927E-01  4.92110062E-01 -3.27915187E-14
 -5.53382688E-02  2.49234825E-01 -1.29553927E-01 -4.92110062E-01 -3.55007260E-14
 -1.19736402E-01  5.21908366E-01  2.15645555E-12  5.23491844E-01  9.44022562E-16
  1.28687870E-02 -4.74291908E-02 -2.29317509E-01 -4.25021503E-01 -1.68953394E-14
  1.28687870E-02 -4.74291908E-02  2.29317509E-01 -4.25021503E-01  1.94191713E-14
 -3.64933586E-15  1.43684199E-14 -1.91363027E-15  1.32020068E-14 -6.29774767E-13
  3.39946640E-16 -1.49135764E-15 -2.04727564E-15 -9.90755703E-15  7.36118252E-01
  2.87789009E-16 -1.11822221E-15  7.71999793E-15 -1.01696902E-14 -7.36118252E-01
 -5.02066717E-18  4.80964497E-17 -4.15659262E-15 -2.12692775E-16  9.42309600E-01
  2.19155647E-16 -7.97251762E-16  4.76779288E-15  4.38109206E-15 -3.41613544E-01
 -3.76175259E-18  9.74442236E-16  4.77671121E-15 -4.55994635E-15 -3.41613544E-01
  2.31685850E-14 -1.26658152E-13 -4.40980233E-01  3.14462855E-13 -8.62360725E-15
  2.46443171E-02 -1.19791306E-01  6.50383398E-01  3.99903798E-01 -6.71285789E-16
 -2.46443171E-02  1.19791306E-01  6.50383398E-01 -3.99903798E-01  4.27473105E-15
 -1.37787969E-13  7.27532413E-13  7.70168344E-01 -1.39413680E-12  1.13601152E-15
  6.28719118E-02 -3.38110414E-01  5.08685444E-01 -4.08378600E-01 -7.24395480E-16
 -6.28719118E-02  3.38110414E-01  5.08685444E-01  4.08378600E-01 -1.32187371E-16
  1.02397103E-01 -5.43624387E-01  1.13828098E-12  9.48924301E-01  1.12314966E-16
 -5.02973260E-02  3.00002452E-01 -2.15429463E-01  5.48157948E-01 -2.10794984E-16
 -5.02973260E-02  3.00002452E-01  2.15429463E-01  5.48157948E-01 -7.10525273E-17
Total SCF Density                          R   N=         120
  2.11125254E+00 -4.80421336E-01  2.11448496E+00 -4.22821698E-18  2.25426214E-15
  7.28523912E-01 -1.00532785E-01  4.52801502E-01  2.70326073E-13  7.75705881E-01
  1.08209020E-16  3.43970958E-16 -1.21827988E-15  5.51647660E-17  1.15652820E+00
 -3.80936171E-03  3.75049061E-02 -1.01600924E-02  1.18869686E-02  1.28650937E-16
  2.11632946E+00  4.13351697E-02 -2.64829858E-01 -1.73549260E-02  3.57120246E-02
  1.84894300E-16 -4.98258003E-01  2.16689061E+00  1.02606173E-02  8.28058180E-03
 -1.30954734E-01  1.08570425E-01  1.12857134E-15 -6.60558004E-02  3.06661147E-01
  8.26946293E-01 -2.40445563E-02  1.75983727E-03  5.81756906E-01 -5.35716229E-01
  4.21411471E-16  4.54749783E-02 -2.30594500E-01  3.26406975E-02  9.79860880E-01
  4.55332391E-16 -3.42575226E-16 -7.97762690E-17  1.19082254E-16  1.16470641E-01
  2.53881272E-16 -3.90773590E-16  6.13507101E-16  4.49650614E-16  1.91595583E+00
 -3.80936171E-03  3.75049061E-02  1.01600924E-02  1.18869686E-02 -1.06318476E-16
 -5.75452611E-03  3.80710347E-02  4.90576342E-03  4.41283172E-03 -1.63472427E-16
  2.11632946E+00  4.13351697E-02 -2.64829858E-01  1.73549260E-02  3.57120246E-02
 -2.83569069E-16  3.80710347E-02 -2.07591973E-01  5.62430890E-02 -1.85625494E-02
  2.76411149E-16 -4.98258003E-01  2.16689061E+00 -1.02606173E-02 -8.28058180E-03
 -1.30954734E-01 -1.08570425E-01  1.12663771E-15 -4.90576342E-03 -5.62430890E-02
 -7.54414383E-01 -2.61701605E-01  5.29364448E-16  6.60558004E-02 -3.06661147E-01
  8.26946293E-01 -2.40445563E-02  1.75983727E-03 -5.81756906E-01 -5.35716229E-01
 -4.66575708E-16  4.41283172E-03 -1.85625494E-02  2.61701605E-01  3.18890991E-02
 -4.24128643E-16  4.54749783E-02 -2.30594500E-01 -3.26406975E-02  9.79860880E-01
 -1.94887365E-16 -1.27011553E-17 -9.28983411E-16 -1.28597950E-17  1.16470641E-01
  1.09670651E-16  1.68956266E-16  2.25605414E-16  1.15942523E-15 -2.51524495E-01
 -5.02900720E-17  5.69441531E-17  1.76655917E-16 -1.10205425E-15  1.91595583E+00
Spin SCF Density                           R   N=         120
  9.19238551E-04 -4.17451122E-03  1.83637422E-02  8.65240255E-16 -2.85711589E-15
  5.35220542E-02  5.47175758E-03 -2.22847980E-02  6.15127273E-15  2.15007267E-02
 -3.19339401E-16 -6.57246597E-17  1.75294944E-16 -1.77190857E-16  8.87947382E-01
 -3.71934182E-04  1.62207622E-03  2.39303588E-03 -1.92475666E-03  1.97038180E-16
  2.56000265E-04  2.14684203E-03 -9.28965628E-03 -1.27922272E-02  1.07941379E-02
 -2.81393847E-16 -1.41862288E-03  7.85728506E-03 -7.99849162E-04  2.67800183E-03
 -3.67025030E-03 -6.40751481E-04  2.74296926E-16  1.11611881E-04 -4.55292357E-04
 -1.58772799E-03  1.29539745E-03 -2.83192986E-03  4.16511250E-03 -5.46115274E-03
  6.17099633E-16 -5.42784854E-05 -3.89918008E-04  8.79832172E-03 -4.27955029E-02
  1.00652935E-16  2.26382534E-16  1.73868632E-15 -1.68645112E-16 -3.21905722E-01
 -1.69729621E-16  1.20407770E-15 -4.22818477E-15 -2.51841049E-15  1.16699814E-01
 -3.71934182E-04  1.62207622E-03 -2.39303588E-03 -1.92475666E-03  2.21492580E-18
  2.98688198E-05 -2.14945763E-04  3.20372660E-04 -3.05802563E-04 -3.17142564E-16
  2.56000265E-04  2.14684203E-03 -9.28965628E-03  1.27922272E-02  1.07941379E-02
  1.37901048E-17 -2.14945763E-04  1.45860521E-03 -1.80311112E-03  1.71691290E-03
 -9.33200337E-16 -1.41862288E-03  7.85728506E-03  7.99849162E-04 -2.67800183E-03
 -3.67025030E-03  6.40751481E-04  2.43624326E-16 -3.20372660E-04  1.80311112E-03
  8.76295638E-05  1.24705578E-03 -4.22566569E-15 -1.11611881E-04  4.55292357E-04
 -1.58772799E-03  1.29539745E-03 -2.83192986E-03 -4.16511250E-03 -5.46115274E-03
 -6.80179205E-16 -3.05802563E-04  1.71691290E-03 -1.24705578E-03  1.50998198E-02
  2.21845371E-15 -5.42784854E-05 -3.89918008E-04 -8.79832172E-03 -4.27955029E-02
 -7.67007930E-18 -2.57216145E-17 -1.79120853E-15 -2.99369991E-17 -3.21905722E-01
  5.75083152E-16 -5.98735560E-16  3.04437049E-15  1.37531119E-15  1.16699814E-01
 -2.22104465E-16  5.07014714E-16  3.04702643E-15 -1.35056584E-15  1.16699814E-01
Anisotropic Hyperfine tensors              R   N=          18
 -7.25489179E-01  1.74819740E-14 -8.17370257E-01  1.01784442E-17 -9.51103974E-17
  1.54285944E+00 -1.06568234E-01 -3.48277737E-03 -2.39329740E-01 -1.71908746E-14
 -1.03645407E-14  3.45897973E-01 -1.06568234E-01  3.48277737E-03 -2.39329740E-01
  1.24238342E-14 -5.41202363E-15  3.45897974E-01
Isotropic Hyperfine splittings             R   N=           3
  4.27165283E-02  1.82201205E-02  1.82201205E-02
QEq coupling tensors                       R   N=          18
 -3.60911101E-01  6.45927756E-13 -3.01709668E-01 -3.37350830E-15  2.42624758E-17
  6.62620769E-01 -1.73557691E+00  1.57612179E-01 -1.00656727E+00  6.34824609E-17
 -1.41985951E-17  2.74214418E+00 -1.73557691E+00 -1.57612179E-01 -1.00656727E+00
  6.33146146E-17 -4.59286174E-15  2.74214418E+00
Mulliken Charges                           R   N=           3
  4.16580546E-02 -2.08290273E-02 -2.08290273E-02
ONIOM Charges                              I   N=          16
           0           0           0           0           0           0
           0           0           0           0           0           0
           0           0           0           0
ONIOM Multiplicities                       I   N=          16
           2           0           0           0           0           0
           0           0           0           0           0           0
           0           0           0           0
Atom Layers                                I   N=           3
           1           1           1
Atom Modifiers                             I   N=           3
           0           0           0
Force Field                                I                0
Atom Modified Types                        C   N=           3
                                    
Int Atom Modified Types                    I   N=           3
           0           0           0
Link Atoms                                 I   N=           3
           0           0           0
Atom Modified MM Charges                   R   N=           3
  0.00000000E+00  0.00000000E+00  0.00000000E+00
Link Distances                             R   N=          12
  0.00000000E+00  0.00000000E+00  0.00000000E+00  0.00000000E+00  0.00000000E+00
  0.00000000E+00  0.00000000E+00  0.00000000E+00  0.00000000E+00  0.00000000E+00
  0.00000000E+00  0.00000000E+00
Cartesian Gradient                         R   N=           9
  4.85774615E-13 -1.48373728E-04 -2.21021719E-16 -8.62459103E-05  7.41868643E-05
  9.11646924E-16  8.62459101E-05  7.41868641E-05 -6.90625205E-16
Cartesian Force Constants                  R   N=          45
  1.55565898E-01 -1.76069020E-10  6.98893832E-01  4.49019641E-12 -8.24877782E-12
  2.45748845E-04 -7.77829492E-02  1.99249509E-01 -5.85392215E-12  6.08366206E-01
  1.30928627E-01 -3.49446916E-01  6.81424586E-12 -1.65089068E-01  2.84965997E-01
 -4.97619325E-11  7.11345196E-12 -1.22874443E-04  2.55021635E-11 -4.19230661E-11
  1.26534218E-04 -7.77829492E-02 -1.99249509E-01  1.36372575E-12 -5.30583257E-01
  3.41604412E-02  2.42597690E-11  6.08366206E-01 -1.30928627E-01 -3.49446916E-01
  1.43453195E-12 -3.41604413E-02  6.44809196E-02  3.48096141E-11  1.65089068E-01
  2.84965997E-01  4.52717361E-11  1.13532595E-12 -1.22874404E-04 -1.96482413E-11
  3.51088202E-11 -3.65977681E-06 -2.56234948E-11 -3.62441461E-11  1.26534180E-04
Dipole Moment                              R   N=           3
 -2.21866969E-12 -5.75880041E-02 -2.41028693E-16
Dipole Derivatives                         R   N=          27
  1.68091636E-01 -1.07193620E-10  9.73406072E-11  1.24272222E-10  3.17549357E-01
 -7.61799981E-11 -1.39145339E-11 -3.78408615E-12 -2.46887593E-02 -8.40458182E-02
 -1.36166399E-02  3.59770258E-11  1.62366863E-01 -1.58774678E-01  1.01987480E-10
  3.19912224E-11  2.06280061E-11  1.23443798E-02 -8.40458182E-02  1.36166401E-02
 -1.33317633E-10 -1.62366863E-01 -1.58774678E-01 -2.58074815E-11 -1.80766885E-11
 -1.68439210E-11  1.23443796E-02
Polarizability                             R   N=           6
  8.83224647E+00 -1.71957152E-10  8.82730365E+00  1.43499956E-10 -1.45352689E-10
  2.09778942E+00
