naphtalene                                                              
Freq      ULC-BLYP                                                    STO-3G              
Number of atoms                            I                3
Info1-9                                    I   N=           9
          14          14        1001           0           0         101
           6          18         202
Charge                                     I                0
Multiplicity                               I                2
Number of electrons                        I               23
Number of alpha electrons                  I               12
Number of beta electrons                   I               11
Number of basis functions                  I               15
Number of independent functions            I               15
Number of point charges in /Mol/           I                0
Number of translation vectors              I                0
Atomic numbers                             I   N=           3
           7           8           8
Nuclear charges                            R   N=           3
  7.00000000E+00  8.00000000E+00  8.00000000E+00
Current cartesian coordinates              R   N=           9
  0.00000000E+00  1.55679985E+00  0.00000000E+00  1.38660545E+00 -7.78398981E-01
  0.00000000E+00 -1.38660545E+00 -7.78398981E-01  0.00000000E+00
Number of symbols in /Mol/                 I                0
Force Field                                I                0
Atom Types                                 C   N=           3
                                    
Int Atom Types                             I   N=           3
           0           0           0
MM charges                                 R   N=           3
  0.00000000E+00  0.00000000E+00  0.00000000E+00
Integer atomic weights                     I   N=           3
          14          16          16
Real atomic weights                        R   N=           3
  1.40030740E+01  1.59949146E+01  1.59949146E+01
Atom fragment info                         I   N=           3
           0           0           0
Atom residue num                           I   N=           3
           0           0           0
Nuclear spins                              I   N=           3
           2           0           0
Nuclear ZEff                               R   N=           3
 -4.55000000E+00 -5.60000000E+00 -5.60000000E+00
Nuclear QMom                               R   N=           3
  2.04400000E+00  0.00000000E+00  0.00000000E+00
Nuclear GFac                               R   N=           3
  4.03761000E-01  0.00000000E+00  0.00000000E+00
MicOpt                                     I   N=           3
          -1          -1          -1
Number of residues                         I                0
Number of secondary structures             I                0
Number of contracted shells                I                6
Number of primitive shells                 I               18
Pure/Cartesian d shells                    I                0
Pure/Cartesian f shells                    I                0
Highest angular momentum                   I                1
Largest degree of contraction              I                3
Shell types                                I   N=           6
           0          -1           0          -1           0          -1
Number of primitives per shell             I   N=           6
           3           3           3           3           3           3
Shell to atom map                          I   N=           6
           1           1           2           2           3           3
Primitive exponents                        R   N=          18
  9.91061690E+01  1.80523124E+01  4.88566024E+00  3.78045588E+00  8.78496645E-01
  2.85714374E-01  1.30709321E+02  2.38088661E+01  6.44360831E+00  5.03315132E+00
  1.16959612E+00  3.80388960E-01  1.30709321E+02  2.38088661E+01  6.44360831E+00
  5.03315132E+00  1.16959612E+00  3.80388960E-01
Contraction coefficients                   R   N=          18
  1.54328967E-01  5.35328142E-01  4.44634542E-01 -9.99672292E-02  3.99512826E-01
  7.00115469E-01  1.54328967E-01  5.35328142E-01  4.44634542E-01 -9.99672292E-02
  3.99512826E-01  7.00115469E-01  1.54328967E-01  5.35328142E-01  4.44634542E-01
 -9.99672292E-02  3.99512826E-01  7.00115469E-01
P(S=P) Contraction coefficients            R   N=          18
  0.00000000E+00  0.00000000E+00  0.00000000E+00  1.55916275E-01  6.07683719E-01
  3.91957393E-01  0.00000000E+00  0.00000000E+00  0.00000000E+00  1.55916275E-01
  6.07683719E-01  3.91957393E-01  0.00000000E+00  0.00000000E+00  0.00000000E+00
  1.55916275E-01  6.07683719E-01  3.91957393E-01
Coordinates of each shell                  R   N=          18
  0.00000000E+00  1.55679985E+00  0.00000000E+00  0.00000000E+00  1.55679985E+00
  0.00000000E+00  1.38660545E+00 -7.78398981E-01  0.00000000E+00  1.38660545E+00
 -7.78398981E-01  0.00000000E+00 -1.38660545E+00 -7.78398981E-01  0.00000000E+00
 -1.38660545E+00 -7.78398981E-01  0.00000000E+00
Constraint Structure                       R   N=           9
  0.00000000E+00  1.55679985E+00  0.00000000E+00  1.38660545E+00 -7.78398981E-01
  0.00000000E+00 -1.38660545E+00 -7.78398981E-01  0.00000000E+00
Num ILSW                                   I              100
ILSW                                       I   N=         100
           1           0           0           0           2           0
           0           0           3           0       10402          -1
           0           0           0           0           2           0
           0           0           0           0           1           0
           1           1           0           0           0           0
           0           0      100000           0          -1           0
           0           0           0           0           0           0
           0           0           0           1           0           0
           0           0           1           0           0           0
           0           0           4          40           0           0
           0           0           0           0           0           0
           0           0           0           0           0           0
           0           0           0           0           0           0
           0           0           0           0           0           0
           0           0           0           0           0           0
           0           0           0           0           0           0
           0           0           0           0
Num RLSW                                   I               40
RLSW                                       R   N=          40
  1.00000000E+00  1.00000000E+00  1.00000000E+00  1.00000000E+00  1.00000000E+00
  0.00000000E+00  4.70000000E-01  0.00000000E+00  0.00000000E+00  1.00000000E+00
  0.00000000E+00  4.70000000E-01  0.00000000E+00  0.00000000E+00  1.00000000E+00
  0.00000000E+00  0.00000000E+00  1.00000000E+00  0.00000000E+00  0.00000000E+00
  0.00000000E+00  0.00000000E+00  1.00000000E+00  0.00000000E+00  0.00000000E+00
  0.00000000E+00  0.00000000E+00  1.00000000E+00  0.00000000E+00  0.00000000E+00
  0.00000000E+00  0.00000000E+00  1.00000000E+00  0.00000000E+00  0.00000000E+00
  0.00000000E+00  0.00000000E+00  0.00000000E+00  1.00000000E+00  1.00000000E+00
MxBond                                     I                2
NBond                                      I   N=           3
           2           2           2
IBond                                      I   N=           6
           2           3           1           3           1           2
RBond                                      R   N=           6
  1.00000000E+00  1.00000000E+00  1.00000000E+00  1.00000000E+00  1.00000000E+00
  1.00000000E+00
Virial Ratio                               R      2.013366866446797E+00
SCF Energy                                 R     -2.017670688863433E+02
Total Energy                               R     -2.017670688863433E+02
S**2                                       R      7.536559568774912E-01
S**2 after annihilation                    R      7.500058378067348E-01
RMS Force                                  R      7.295269319968131E-05
RMS Density                                R      5.411557062053454E-10
External E-field                           R   N=          35
  0.00000000E+00  0.00000000E+00  0.00000000E+00  0.00000000E+00  0.00000000E+00
  0.00000000E+00  0.00000000E+00  0.00000000E+00  0.00000000E+00  0.00000000E+00
  0.00000000E+00  0.00000000E+00  0.00000000E+00  0.00000000E+00  0.00000000E+00
  0.00000000E+00  0.00000000E+00  0.00000000E+00  0.00000000E+00  0.00000000E+00
  0.00000000E+00  0.00000000E+00  0.00000000E+00  0.00000000E+00  0.00000000E+00
  0.00000000E+00  0.00000000E+00  0.00000000E+00  0.00000000E+00  0.00000000E+00
  0.00000000E+00  0.00000000E+00  0.00000000E+00  0.00000000E+00  0.00000000E+00
IOpCl                                      I                1
IROHF                                      I                0
Alpha Orbital Energies                     R   N=          15
 -1.89010805E+01 -1.88998901E+01 -1.41770212E+01 -1.36976224E+00 -9.82104280E-01
 -8.56428129E-01 -5.77493982E-01 -5.32311215E-01 -4.84563048E-01 -4.66245233E-01
 -3.38986746E-01 -3.30097531E-01  1.96126694E-01  2.57839513E-01  3.46545136E-01
Beta Orbital Energies                      R   N=          15
 -1.89000922E+01 -1.88988737E+01 -1.41640987E+01 -1.35721638E+00 -9.76843644E-01
 -8.11252575E-01 -5.25828913E-01 -5.13407791E-01 -4.74492547E-01 -4.48533313E-01
 -3.16494077E-01  1.19284088E-01  2.03885219E-01  2.71832878E-01  3.70968444E-01
Alpha MO coefficients                      R   N=         225
 -1.08066796E-13  1.05744998E-12 -3.49776484E-03 -9.02233844E-13 -1.67563312E-16
  7.02301406E-01  2.06872983E-02 -4.10860939E-03  1.12301132E-03 -2.33138515E-16
 -7.02301406E-01 -2.06872983E-02 -4.10860939E-03 -1.12301132E-03 -8.65871222E-17
  5.59784892E-04 -5.47810033E-03 -6.75206692E-13  4.67424117E-03 -1.49484126E-17
  7.02874977E-01  1.72367100E-02 -1.67689404E-04  2.12304448E-03 -1.34234074E-17
  7.02874977E-01  1.72367100E-02  1.67689403E-04  2.12304448E-03  4.02146312E-17
  9.92850065E-01  3.01886923E-02 -3.86932017E-16 -5.46860709E-03 -3.98702066E-17
  7.55436783E-04 -4.72787535E-03  1.45641131E-03 -3.63884267E-03 -2.69555294E-16
  7.55436783E-04 -4.72787535E-03 -1.45641131E-03 -3.63884267E-03 -2.45066249E-17
 -1.08214242E-01  3.34085503E-01 -3.71796033E-14 -1.54821176E-01  2.34569183E-16
 -1.40231876E-01  4.72018600E-01 -1.41493402E-01  7.51094016E-02  8.32341330E-17
 -1.40231876E-01  4.72018600E-01  1.41493402E-01  7.51094016E-02 -2.95685032E-16
 -9.80675664E-14  3.61944522E-13  1.96342091E-01 -8.47781244E-14 -2.07796418E-15
 -1.84191816E-01  7.24336321E-01  4.06378690E-02  9.49879600E-02  8.60967782E-16
  1.84191816E-01 -7.24336321E-01  4.06378690E-02 -9.49879600E-02 -1.64401719E-15
 -2.14544121E-01  8.39752608E-01 -1.60717558E-13 -4.23213686E-02 -3.18952399E-16
  9.49099833E-02 -4.08366727E-01  6.76914526E-02  2.20986792E-01  4.62019574E-16
  9.49099833E-02 -4.08366727E-01 -6.76914526E-02  2.20986792E-01 -9.79815381E-16
  9.50974527E-17 -9.12755388E-17 -9.19511662E-17 -8.56957835E-16  5.92523485E-01
 -2.40239005E-17  3.51383534E-16 -2.18361062E-15  1.62716507E-15  4.92485290E-01
  4.80896268E-16 -2.86731383E-15  1.40664938E-15 -1.16731731E-15  4.92485290E-01
 -5.05282191E-02  2.34666915E-01  6.34509832E-13  3.43609003E-01  1.82281262E-15
 -6.90872144E-02  3.14541554E-01  5.32993608E-01 -1.01105459E-01  1.02751656E-15
 -6.90872144E-02  3.14541554E-01 -5.32993608E-01 -1.01105459E-01  2.16949884E-15
 -1.92015358E-13  8.16743281E-13  5.93683865E-01  6.12795573E-13 -1.26122088E-15
  5.85118870E-02 -2.64819266E-01 -1.26844928E-01  4.62055344E-01  5.40557256E-17
 -5.85118870E-02  2.64819266E-01 -1.26844928E-01 -4.62055344E-01 -2.88521152E-16
 -1.00208379E-01  4.40019156E-01 -1.26199080E-12  5.04701603E-01 -2.76274728E-15
  1.53450578E-02 -5.77307772E-02 -2.93657077E-01 -4.25789769E-01 -4.81600820E-16
  1.53450578E-02 -5.77307772E-02  2.93657077E-01 -4.25789769E-01  2.90190380E-15
  1.34817936E-16  3.28666312E-16 -1.75749771E-16  1.45517068E-15  8.70014468E-12
  2.02924039E-16 -2.38314333E-16 -1.23582760E-15 -1.82503870E-15  7.36118252E-01
 -2.55379401E-16  1.03118779E-15 -6.81608403E-16 -7.69846889E-16 -7.36118252E-01
 -1.69575225E-16  1.29133383E-15  7.14194844E-16  1.47940842E-15  8.19239717E-01
 -9.55153297E-18  1.29042122E-16 -9.85454073E-16 -1.19502652E-15 -4.81576556E-01
  1.96394520E-16 -8.09496403E-16  5.67484526E-16 -1.49231576E-15 -4.81576556E-01
 -1.87942410E-14  1.02182374E-13 -5.09451482E-01 -2.23574755E-13 -2.64048594E-16
  1.78618176E-02 -8.32244540E-02  5.80973345E-01  4.62313620E-01  1.54221532E-16
 -1.78618176E-02  8.32244540E-02  5.80973345E-01 -4.62313620E-01 -1.31803160E-15
  6.83627153E-14 -3.66593444E-13  6.88883139E-01  7.02863065E-13  5.47732807E-16
  6.42503650E-02 -3.44300681E-01  5.87349527E-01 -3.76709314E-01  9.54002377E-16
 -6.42503650E-02  3.44300681E-01  5.87349527E-01  3.76709314E-01  1.79959679E-16
  9.78055635E-02 -5.26463420E-01 -5.74747872E-13  9.37526854E-01  7.42903937E-17
 -4.88557721E-02  2.92136143E-01 -2.17364975E-01  5.60646928E-01 -2.05727232E-17
 -4.88557721E-02  2.92136143E-01  2.17364975E-01  5.60646928E-01 -7.51179048E-17
Beta MO coefficients                       R   N=         225
 -1.11838120E-13  1.06900720E-12 -3.48619391E-03 -9.17330404E-13 -1.16878462E-16
  7.02307718E-01  2.06608498E-02 -4.10390101E-03  1.12342759E-03 -5.04379496E-17
 -7.02307718E-01 -2.06608498E-02 -4.10390101E-03 -1.12342759E-03  1.97554656E-16
  5.67231620E-04 -5.42232949E-03 -6.87551006E-13  4.65313637E-03  7.49131966E-17
  7.02883728E-01  1.71985997E-02 -1.65114759E-04  2.11743500E-03  7.96875513E-17
  7.02883727E-01  1.71985996E-02  1.65114757E-04  2.11743500E-03 -1.82064021E-16
  9.93065313E-01  2.93152779E-02 -2.00456996E-16 -5.31693954E-03 -2.63323600E-17
  7.14002574E-04 -4.55780817E-03  1.40915607E-03 -3.52405647E-03  1.63755712E-16
  7.14002574E-04 -4.55780817E-03 -1.40915607E-03 -3.52405647E-03 -7.41420627E-17
 -9.91980712E-02  2.97991881E-01 -3.62503955E-14 -1.49012362E-01 -4.28445323E-16
 -1.43527638E-01  4.86993027E-01 -1.45463780E-01  7.66794034E-02 -2.86462810E-16
 -1.43527638E-01  4.86993027E-01  1.45463780E-01  7.66794034E-02  2.41437880E-16
 -7.19550611E-14  2.57978527E-13  1.85526580E-01 -8.06355081E-14 -2.12025872E-16
 -1.84840500E-01  7.27651088E-01  4.13151305E-02  9.64012495E-02 -1.88438941E-16
  1.84840500E-01 -7.27651088E-01  4.13151305E-02 -9.64012495E-02 -3.84807055E-16
 -2.06679555E-01  8.00687669E-01 -1.46420973E-13 -6.22550258E-02 -1.48607113E-16
  9.01726207E-02 -3.91093877E-01  5.76892818E-02  2.65539450E-01 -7.00232728E-16
  9.01726207E-02 -3.91093877E-01 -5.76892818E-02  2.65539450E-01  4.37691353E-16
 -4.57614373E-02  2.11857441E-01  4.93272350E-13  2.77360005E-01  3.58244934E-15
 -6.80392023E-02  3.07917137E-01  5.64519894E-01 -5.30123068E-02  5.29387796E-15
 -6.80392023E-02  3.07917137E-01 -5.64519894E-01 -5.30123068E-02  6.05386381E-15
  3.43328115E-16 -2.13380300E-15  2.82400793E-14 -2.96652048E-15  3.66456561E-01
  3.33466026E-15 -1.54096502E-14 -1.21996365E-14  2.71425018E-14  5.98128687E-01
 -2.00597428E-15  9.57673227E-15 -1.64430917E-15 -2.53748837E-14  5.98128687E-01
 -2.06135998E-13  8.71437530E-13  5.50516724E-01  5.62083656E-13 -1.71273535E-14
  5.53382688E-02 -2.49234825E-01 -1.29553927E-01  4.92110062E-01 -3.39210716E-14
 -5.53382688E-02  2.49234825E-01 -1.29553927E-01 -4.92110062E-01 -3.03016280E-14
 -1.19736402E-01  5.21908366E-01 -9.70054412E-13  5.23491844E-01 -9.48008023E-16
  1.28687870E-02 -4.74291908E-02 -2.29317509E-01 -4.25021503E-01 -8.83083623E-15
  1.28687870E-02 -4.74291908E-02  2.29317509E-01 -4.25021503E-01  1.04168063E-14
 -1.49089880E-15  7.51605065E-15  1.16742283E-16  6.77642333E-15  2.78539670E-13
  7.26265235E-16 -1.97783013E-15  5.35062061E-16 -2.44740567E-15  7.36118252E-01
 -1.84295017E-16  8.71989773E-16  5.80944741E-15 -8.13965143E-15 -7.36118252E-01
 -6.37146726E-17  7.03081849E-16  1.30332388E-15  6.32301918E-16  9.42309600E-01
 -4.05206561E-16  1.64822507E-15 -4.97616675E-15 -4.14761379E-15 -3.41613544E-01
  3.32185822E-16 -1.59798732E-15 -4.17128845E-15  3.23358400E-15 -3.41613544E-01
 -1.13871558E-14  6.10532820E-14 -4.40980233E-01 -1.49183496E-13  6.37732595E-15
  2.46443171E-02 -1.19791306E-01  6.50383398E-01  3.99903798E-01 -6.09743650E-15
 -2.46443171E-02  1.19791306E-01  6.50383398E-01 -3.99903798E-01  9.24983959E-16
  6.27796590E-14 -3.31827217E-13  7.70168344E-01  6.40103050E-13  7.32004180E-16
  6.28719118E-02 -3.38110414E-01  5.08685444E-01 -4.08378600E-01 -6.90138264E-16
 -6.28719118E-02  3.38110414E-01  5.08685444E-01  4.08378600E-01  9.42382455E-16
  1.02397103E-01 -5.43624387E-01 -5.23433632E-13  9.48924301E-01 -7.79966245E-17
 -5.02973260E-02  3.00002452E-01 -2.15429463E-01  5.48157948E-01  1.04382328E-18
 -5.02973260E-02  3.00002452E-01  2.15429463E-01  5.48157948E-01 -2.62904616E-17
Total SCF Density                          R   N=         120
  2.11125254E+00 -4.80421336E-01  2.11448496E+00 -3.23489342E-16 -6.27011400E-17
  7.28523912E-01 -1.00532785E-01  4.52801502E-01 -1.21192484E-13  7.75705881E-01
  2.28119416E-16 -7.40265670E-16  2.55380135E-16 -6.02638692E-16  1.15652820E+00
 -3.80936171E-03  3.75049061E-02 -1.01600924E-02  1.18869686E-02  3.27709139E-18
  2.11632946E+00  4.13351697E-02 -2.64829858E-01 -1.73549260E-02  3.57120246E-02
 -4.22940533E-16 -4.98258003E-01  2.16689061E+00  1.02606173E-02  8.28058180E-03
 -1.30954734E-01  1.08570425E-01 -2.63469567E-16 -6.60558004E-02  3.06661147E-01
  8.26946293E-01 -2.40445563E-02  1.75983727E-03  5.81756906E-01 -5.35716229E-01
  1.78247870E-15  4.54749783E-02 -2.30594500E-01  3.26406975E-02  9.79860880E-01
  1.07114471E-16  1.39455894E-16 -2.04840915E-15  1.60767838E-16  1.16470641E-01
 -2.11322244E-17  5.69802203E-16  1.72574437E-15  1.33672821E-15  1.91595583E+00
 -3.80936171E-03  3.75049061E-02  1.01600924E-02  1.18869686E-02  1.12911045E-16
 -5.75452611E-03  3.80710347E-02  4.90576342E-03  4.41283172E-03  3.20080495E-16
  2.11632946E+00  4.13351697E-02 -2.64829858E-01  1.73549260E-02  3.57120246E-02
  1.82598401E-16  3.80710347E-02 -2.07591973E-01  5.62430890E-02 -1.85625494E-02
 -4.27289851E-16 -4.98258003E-01  2.16689061E+00 -1.02606173E-02 -8.28058180E-03
 -1.30954734E-01 -1.08570425E-01 -1.03880103E-15 -4.90576342E-03 -5.62430890E-02
 -7.54414383E-01 -2.61701605E-01  1.90352397E-15  6.60558004E-02 -3.06661147E-01
  8.26946293E-01 -2.40445563E-02  1.75983727E-03 -5.81756906E-01 -5.35716229E-01
 -9.03334421E-16  4.41283172E-03 -1.85625494E-02  2.61701605E-01  3.18890991E-02
 -1.51266748E-15  4.54749783E-02 -2.30594500E-01 -3.26406975E-02  9.79860880E-01
 -5.62873717E-16  2.86088799E-16 -7.01996930E-16  3.97881262E-16  1.16470641E-01
 -4.68207661E-16  7.75255900E-16 -2.20434111E-15 -7.88788988E-16 -2.51524495E-01
 -2.17714564E-17 -7.65344366E-16 -1.75806789E-15  4.55765819E-16  1.91595583E+00
Spin SCF Density                           R   N=         120
  9.19238551E-04 -4.17451122E-03  1.83637422E-02 -1.13567988E-15  4.37248670E-15
  5.35220542E-02  5.47175758E-03 -2.22847980E-02  2.82379814E-15  2.15007267E-02
 -1.68718246E-17  7.90914597E-16 -1.50649747E-15  4.29688137E-16  8.87947382E-01
 -3.71934182E-04  1.62207622E-03  2.39303588E-03 -1.92475666E-03 -1.48922048E-16
  2.56000265E-04  2.14684203E-03 -9.28965628E-03 -1.27922272E-02  1.07941379E-02
  6.49042367E-16 -1.41862288E-03  7.85728506E-03 -7.99849162E-04  2.67800183E-03
 -3.67025030E-03 -6.40751481E-04 -3.30386319E-16  1.11611881E-04 -4.55292357E-04
 -1.58772799E-03  1.29539745E-03 -2.83192986E-03  4.16511250E-03 -5.46115274E-03
 -1.49428395E-15 -5.42784854E-05 -3.89918008E-04  8.79832172E-03 -4.27955029E-02
 -4.10484188E-16 -1.15365218E-16  1.41511912E-15 -1.29445769E-16 -3.21905722E-01
 -4.44564225E-16  9.15457384E-16 -3.27226056E-15 -6.35965727E-16  1.16699814E-01
 -3.71934182E-04  1.62207622E-03 -2.39303588E-03 -1.92475666E-03 -8.78340453E-17
  2.98688198E-05 -2.14945763E-04  3.20372660E-04 -3.05802563E-04  1.15081225E-16
  2.56000265E-04  2.14684203E-03 -9.28965628E-03  1.27922272E-02  1.07941379E-02
 -6.10117089E-16 -2.14945763E-04  1.45860521E-03 -1.80311112E-03  1.71691290E-03
 -9.02778032E-16 -1.41862288E-03  7.85728506E-03  7.99849162E-04 -2.67800183E-03
 -3.67025030E-03  6.40751481E-04  3.31982397E-16 -3.20372660E-04  1.80311112E-03
  8.76295638E-05  1.24705578E-03 -3.42628604E-15 -1.11611881E-04  4.55292357E-04
 -1.58772799E-03  1.29539745E-03 -2.83192986E-03 -4.16511250E-03 -5.46115274E-03
  5.14128402E-16 -3.05802563E-04  1.71691290E-03 -1.24705578E-03  1.50998198E-02
  8.74788020E-16 -5.42784854E-05 -3.89918008E-04 -8.79832172E-03 -4.27955029E-02
  2.56357092E-16 -3.76706996E-16 -8.05260549E-16 -2.13967230E-16 -3.21905722E-01
  3.47962510E-16 -8.82533887E-16  3.32167892E-15  2.26321808E-15  1.16699814E-01
 -2.52580560E-17  9.87519727E-16  2.98150943E-15 -1.84268924E-15  1.16699814E-01
Anisotropic Hyperfine tensors              R   N=          18
 -7.25489179E-01  6.68184065E-15 -8.17370257E-01 -4.18155907E-15  1.43153308E-16
  1.54285944E+00 -1.06568234E-01 -3.48277737E-03 -2.39329740E-01 -1.32064088E-14
  5.83023881E-17  3.45897974E-01 -1.06568234E-01  3.48277737E-03 -2.39329740E-01
  1.20014650E-14 -7.70953177E-15  3.45897974E-01
Isotropic Hyperfine splittings             R   N=           3
  4.27165283E-02  1.82201205E-02  1.82201205E-02
QEq coupling tensors                       R   N=          18
 -3.60911101E-01 -2.88991053E-13 -3.01709668E-01  1.09104366E-16 -8.66268542E-17
  6.62620769E-01 -1.73557691E+00  1.57612179E-01 -1.00656727E+00  6.94755334E-15
  5.51297813E-15  2.74214418E+00 -1.73557691E+00 -1.57612179E-01 -1.00656727E+00
 -7.09945092E-15 -3.90979782E-17  2.74214418E+00
Mulliken Charges                           R   N=           3
  4.16580546E-02 -2.08290273E-02 -2.08290273E-02
ONIOM Charges                              I   N=          16
           0           0           0           0           0           0
           0           0           0           0           0           0
           0           0           0           0
ONIOM Multiplicities                       I   N=          16
           2           0           0           0           0           0
           0           0           0           0           0           0
           0           0           0           0
Atom Layers                                I   N=           3
           1           1           1
Atom Modifiers                             I   N=           3
           0           0           0
Force Field                                I                0
Atom Modified Types                        C   N=           3
                                    
Int Atom Modified Types                    I   N=           3
           0           0           0
Link Atoms                                 I   N=           3
           0           0           0
Atom Modified MM Charges                   R   N=           3
  0.00000000E+00  0.00000000E+00  0.00000000E+00
Link Distances                             R   N=          12
  0.00000000E+00  0.00000000E+00  0.00000000E+00  0.00000000E+00  0.00000000E+00
  0.00000000E+00  0.00000000E+00  0.00000000E+00  0.00000000E+00  0.00000000E+00
  0.00000000E+00  0.00000000E+00
Cartesian Gradient                         R   N=           9
 -2.23383811E-13 -1.48373728E-04  2.87002569E-15 -8.62459102E-05  7.41868642E-05
 -9.56160833E-15  8.62459103E-05  7.41868643E-05  6.69158264E-15
Cartesian Force Constants                  R   N=          45
  1.55565898E-01 -1.75778699E-10  6.98893832E-01  4.48991562E-12 -8.24882544E-12
  2.45748846E-04 -7.77829492E-02  1.99249509E-01 -5.85380590E-12  6.08366206E-01
  1.30928627E-01 -3.49446916E-01  6.81487893E-12 -1.65089068E-01  2.84965997E-01
 -4.97623025E-11  7.11313187E-12 -1.22874443E-04  2.55017472E-11 -4.19234980E-11
  1.26534217E-04 -7.77829492E-02 -1.99249509E-01  1.36389028E-12 -5.30583257E-01
  3.41604412E-02  2.42605553E-11  6.08366206E-01 -1.30928627E-01 -3.49446916E-01
  1.43394651E-12 -3.41604413E-02  6.44809196E-02  3.48103661E-11  1.65089068E-01
  2.84965997E-01  4.52723868E-11  1.13569366E-12 -1.22874404E-04 -1.96479413E-11
  3.51086190E-11 -3.65977681E-06 -2.56244456E-11 -3.62443127E-11  1.26534181E-04
Dipole Moment                              R   N=           3
  1.00541797E-12 -5.75880041E-02  6.16699084E-16
Dipole Derivatives                         R   N=          27
  1.68091636E-01 -1.07515346E-10  9.73419169E-11  1.24000420E-10  3.17549357E-01
 -7.61806679E-11 -1.39146466E-11 -3.78470099E-12 -2.46887593E-02 -8.40458182E-02
 -1.36166399E-02  3.59761222E-11  1.62366863E-01 -1.58774678E-01  1.01990044E-10
  3.19911562E-11  2.06287391E-11  1.23443798E-02 -8.40458182E-02  1.36166401E-02
 -1.33318039E-10 -1.62366863E-01 -1.58774678E-01 -2.58093763E-11 -1.80765095E-11
 -1.68440391E-11  1.23443796E-02
Polarizability                             R   N=           6
  8.83224647E+00 -1.73225896E-10  8.82730365E+00  1.43497366E-10 -1.45351524E-10
  2.09778942E+00
