 Entering Gaussian System, Link 0=g09
 Input=s0-opt-freq.inp
 Output=s0-opt-freq.log
 Initial command:
 /usr/soft/chemie/g09/l1.exe /tmp/Gau-26726.inp -scrdir=/tmp/
 Entering Link 1 = /usr/soft/chemie/g09/l1.exe PID=     26727.
  
 Copyright (c) 1988,1990,1992,1993,1995,1998,2003,2009,2011,
            Gaussian, Inc.  All Rights Reserved.
  
 This is part of the Gaussian(R) 09 program.  It is based on
 the Gaussian(R) 03 system (copyright 2003, Gaussian, Inc.),
 the Gaussian(R) 98 system (copyright 1998, Gaussian, Inc.),
 the Gaussian(R) 94 system (copyright 1995, Gaussian, Inc.),
 the Gaussian 92(TM) system (copyright 1992, Gaussian, Inc.),
 the Gaussian 90(TM) system (copyright 1990, Gaussian, Inc.),
 the Gaussian 88(TM) system (copyright 1988, Gaussian, Inc.),
 the Gaussian 86(TM) system (copyright 1986, Carnegie Mellon
 University), and the Gaussian 82(TM) system (copyright 1983,
 Carnegie Mellon University). Gaussian is a federally registered
 trademark of Gaussian, Inc.
  
 This software contains proprietary and confidential information,
 including trade secrets, belonging to Gaussian, Inc.
  
 This software is provided under written license and may be
 used, copied, transmitted, or stored only in accord with that
 written license.
  
 The following legend is applicable only to US Government
 contracts under FAR:
  
                    RESTRICTED RIGHTS LEGEND
  
 Use, reproduction and disclosure by the US Government is
 subject to restrictions as set forth in subparagraphs (a)
 and (c) of the Commercial Computer Software - Restricted
 Rights clause in FAR 52.227-19.
  
 Gaussian, Inc.
 340 Quinnipiac St., Bldg. 40, Wallingford CT 06492
  
  
 ---------------------------------------------------------------
 Warning -- This program may not be used in any manner that
 competes with the business of Gaussian, Inc. or will provide
 assistance to any competitor of Gaussian, Inc.  The licensee
 of this program is prohibited from giving any competitor of
 Gaussian, Inc. access to this program.  By using this program,
 the user acknowledges that Gaussian, Inc. is engaged in the
 business of creating and licensing software in the field of
 computational chemistry and represents and warrants to the
 licensee that it is not a competitor of Gaussian, Inc. and that
 it will not use this program in any manner prohibited above.
 ---------------------------------------------------------------
  

 Cite this work as:
 Gaussian 09, Revision C.01,
 M. J. Frisch, G. W. Trucks, H. B. Schlegel, G. E. Scuseria, 
 M. A. Robb, J. R. Cheeseman, G. Scalmani, V. Barone, B. Mennucci, 
 G. A. Petersson, H. Nakatsuji, M. Caricato, X. Li, H. P. Hratchian, 
 A. F. Izmaylov, J. Bloino, G. Zheng, J. L. Sonnenberg, M. Hada, 
 M. Ehara, K. Toyota, R. Fukuda, J. Hasegawa, M. Ishida, T. Nakajima, 
 Y. Honda, O. Kitao, H. Nakai, T. Vreven, J. A. Montgomery, Jr., 
 J. E. Peralta, F. Ogliaro, M. Bearpark, J. J. Heyd, E. Brothers, 
 K. N. Kudin, V. N. Staroverov, T. Keith, R. Kobayashi, J. Normand, 
 K. Raghavachari, A. Rendell, J. C. Burant, S. S. Iyengar, J. Tomasi, 
 M. Cossi, N. Rega, J. M. Millam, M. Klene, J. E. Knox, J. B. Cross, 
 V. Bakken, C. Adamo, J. Jaramillo, R. Gomperts, R. E. Stratmann, 
 O. Yazyev, A. J. Austin, R. Cammi, C. Pomelli, J. W. Ochterski, 
 R. L. Martin, K. Morokuma, V. G. Zakrzewski, G. A. Voth, 
 P. Salvador, J. J. Dannenberg, S. Dapprich, A. D. Daniels, 
 O. Farkas, J. B. Foresman, J. V. Ortiz, J. Cioslowski, 
 and D. J. Fox, Gaussian, Inc., Wallingford CT, 2010.
 
 ******************************************
 Gaussian 09:  EM64L-G09RevC.01 23-Sep-2011
                12-Mar-2015 
 ******************************************
 %nprocs=8
 Will use up to    8 processors via shared memory.
 %mem=1000MW
 %chk=s0-opt-freq.chk
 ----------------------------------------------------------------
 #P BLYP/6-31G Opt Freq(SaveNM) Nosym Gfinput IOP(6/7=3) Pop=full
 ----------------------------------------------------------------
 1/14=-1,18=20,19=15,26=3,38=1/1,3;
 2/9=110,12=2,15=1,17=6,18=5,40=1/2;
 3/5=1,6=6,11=2,16=1,24=10,25=1,30=1,71=1,74=402/1,2,3;
 4//1;
 5/5=2,38=5/2;
 6/7=3,28=1/1;
 7/30=1,92=1/1,2,3,16;
 1/14=-1,18=20,19=15/3(2);
 2/9=110,15=1/2;
 99//99;
 2/9=110,15=1/2;
 3/5=1,6=6,11=2,16=1,25=1,30=1,71=1,74=402/1,2,3;
 4/5=5,16=3/1;
 5/5=2,38=5/2;
 7/30=1,92=1/1,2,3,16;
 1/14=-1,18=20,19=15/3(-5);
 2/9=110,15=1/2;
 6/7=3,19=2,28=1/1;
 99/9=1/99;
 Leave Link    1 at Thu Mar 12 11:34:38 2015, MaxMem= 1048576000 cpu:       0.4
 (Enter /usr/soft/chemie/g09/l101.exe)
 -------------------------
 acrolein test BLYP opt S0
 -------------------------
 Charge =  0 Multiplicity = 1
 Symbolic Z-Matrix:
 8                    -1.83249  -0.14373   0. 
 6                     1.78337   0.14706   0. 
 6                     0.56485  -0.44467   0. 
 6                    -0.67879   0.35132   0. 
 1                    -0.53083   1.45911   0. 
 1                     0.44824  -1.53296   0. 
 1                     2.71313  -0.42606   0. 
 1                     1.88429   1.23805   0. 
 
 NAtoms=      8 NQM=        0 NQMF=       0 NMMI=      8 NMMIF=      0
                NMic=       0 NMicF=      0.
                    Isotopes and Nuclear Properties:
 (Nuclear quadrupole moments (NQMom) in fm**2, nuclear magnetic moments (NMagM)
  in nuclear magnetons)

  Atom         1           2           3           4           5           6           7           8
 IAtWgt=          16          12          12          12           1           1           1           1
 AtmWgt=  15.9949146  12.0000000  12.0000000  12.0000000   1.0078250   1.0078250   1.0078250   1.0078250
 NucSpn=           0           0           0           0           1           1           1           1
 AtZEff=   0.0000000   0.0000000   0.0000000   0.0000000   0.0000000   0.0000000   0.0000000   0.0000000
 NQMom=    0.0000000   0.0000000   0.0000000   0.0000000   0.0000000   0.0000000   0.0000000   0.0000000
 NMagM=    0.0000000   0.0000000   0.0000000   0.0000000   2.7928460   2.7928460   2.7928460   2.7928460
 Leave Link  101 at Thu Mar 12 11:34:38 2015, MaxMem= 1048576000 cpu:       2.7
 (Enter /usr/soft/chemie/g09/l103.exe)

 GradGradGradGradGradGradGradGradGradGradGradGradGradGradGradGradGradGrad
 Berny optimization.
 Initialization pass.
                           ----------------------------
                           !    Initial Parameters    !
                           ! (Angstroms and Degrees)  !
 --------------------------                            --------------------------
 ! Name  Definition              Value          Derivative Info.                !
 --------------------------------------------------------------------------------
 ! R1    R(1,4)                  1.2554         estimate D2E/DX2                !
 ! R2    R(2,3)                  1.3546         estimate D2E/DX2                !
 ! R3    R(2,7)                  1.0922         estimate D2E/DX2                !
 ! R4    R(2,8)                  1.0956         estimate D2E/DX2                !
 ! R5    R(3,4)                  1.4766         estimate D2E/DX2                !
 ! R6    R(3,6)                  1.0945         estimate D2E/DX2                !
 ! R7    R(4,5)                  1.1176         estimate D2E/DX2                !
 ! A1    A(3,2,7)              122.4474         estimate D2E/DX2                !
 ! A2    A(3,2,8)              121.187          estimate D2E/DX2                !
 ! A3    A(7,2,8)              116.3656         estimate D2E/DX2                !
 ! A4    A(2,3,4)              121.4765         estimate D2E/DX2                !
 ! A5    A(2,3,6)              122.0182         estimate D2E/DX2                !
 ! A6    A(4,3,6)              116.5053         estimate D2E/DX2                !
 ! A7    A(1,4,3)              124.1545         estimate D2E/DX2                !
 ! A8    A(1,4,5)              120.8316         estimate D2E/DX2                !
 ! A9    A(3,4,5)              115.0139         estimate D2E/DX2                !
 ! D1    D(7,2,3,4)            180.0            estimate D2E/DX2                !
 ! D2    D(7,2,3,6)              0.0            estimate D2E/DX2                !
 ! D3    D(8,2,3,4)              0.0            estimate D2E/DX2                !
 ! D4    D(8,2,3,6)            180.0            estimate D2E/DX2                !
 ! D5    D(2,3,4,1)            180.0            estimate D2E/DX2                !
 ! D6    D(2,3,4,5)              0.0            estimate D2E/DX2                !
 ! D7    D(6,3,4,1)              0.0            estimate D2E/DX2                !
 ! D8    D(6,3,4,5)            180.0            estimate D2E/DX2                !
 --------------------------------------------------------------------------------
 Trust Radius=3.00D-01 FncErr=1.00D-07 GrdErr=1.00D-06
 Number of steps in this run=     34 maximum allowed number of steps=    100.
 GradGradGradGradGradGradGradGradGradGradGradGradGradGradGradGradGradGrad

 Leave Link  103 at Thu Mar 12 11:34:38 2015, MaxMem= 1048576000 cpu:       0.1
 (Enter /usr/soft/chemie/g09/l202.exe)
                          Input orientation:                          
 ---------------------------------------------------------------------
 Center     Atomic      Atomic             Coordinates (Angstroms)
 Number     Number       Type             X           Y           Z
 ---------------------------------------------------------------------
      1          8           0       -1.832489   -0.143725    0.000000
      2          6           0        1.783370    0.147062    0.000000
      3          6           0        0.564851   -0.444674    0.000000
      4          6           0       -0.678790    0.351324    0.000000
      5          1           0       -0.530831    1.459112    0.000000
      6          1           0        0.448236   -1.532964    0.000000
      7          1           0        2.713133   -0.426063    0.000000
      8          1           0        1.884288    1.238048    0.000000
 ---------------------------------------------------------------------
                    Distance matrix (angstroms):
                    1          2          3          4          5
     1  O    0.000000
     2  C    3.627533   0.000000
     3  C    2.416156   1.354600   0.000000
     4  C    1.255426   2.470618   1.476569   0.000000
     5  H    2.064800   2.660263   2.196570   1.117625   0.000000
     6  H    2.670523   2.145943   1.094520   2.195616   3.148189
     7  H    4.554382   1.092214   2.148363   3.479867   3.751958
     8  H    3.965316   1.095644   2.138333   2.712130   2.425215
                    6          7          8
     6  H    0.000000
     7  H    2.520910   0.000000
     8  H    3.121018   1.859099   0.000000
 Symmetry turned off by external request.
 Stoichiometry    C3H4O
 Framework group  CS[SG(C3H4O)]
 Deg. of freedom    13
 Full point group                 CS      NOp   2
 Rotational constants (GHZ):     47.4155940      4.4990239      4.1091295
 Leave Link  202 at Thu Mar 12 11:34:38 2015, MaxMem= 1048576000 cpu:       0.0
 (Enter /usr/soft/chemie/g09/l301.exe)
 Standard basis: 6-31G (6D, 7F)
 Ernie: Thresh=  0.10000D-02 Tol=  0.10000D-05 Strict=F.
 AO basis set in the form of general basis input (Overlap normalization):
      1 0
 S   6 1.00       0.000000000000
      0.5484671660D+04  0.1831074430D-02
      0.8252349460D+03  0.1395017220D-01
      0.1880469580D+03  0.6844507810D-01
      0.5296450000D+02  0.2327143360D+00
      0.1689757040D+02  0.4701928980D+00
      0.5799635340D+01  0.3585208530D+00
 SP   3 1.00       0.000000000000
      0.1553961625D+02 -0.1107775495D+00  0.7087426823D-01
      0.3599933586D+01 -0.1480262627D+00  0.3397528391D+00
      0.1013761750D+01  0.1130767015D+01  0.7271585773D+00
 SP   1 1.00       0.000000000000
      0.2700058226D+00  0.1000000000D+01  0.1000000000D+01
 ****
      2 0
 S   6 1.00       0.000000000000
      0.3047524880D+04  0.1834737132D-02
      0.4573695180D+03  0.1403732281D-01
      0.1039486850D+03  0.6884262226D-01
      0.2921015530D+02  0.2321844432D+00
      0.9286662960D+01  0.4679413484D+00
      0.3163926960D+01  0.3623119853D+00
 SP   3 1.00       0.000000000000
      0.7868272350D+01 -0.1193324198D+00  0.6899906659D-01
      0.1881288540D+01 -0.1608541517D+00  0.3164239610D+00
      0.5442492580D+00  0.1143456438D+01  0.7443082909D+00
 SP   1 1.00       0.000000000000
      0.1687144782D+00  0.1000000000D+01  0.1000000000D+01
 ****
      3 0
 S   6 1.00       0.000000000000
      0.3047524880D+04  0.1834737132D-02
      0.4573695180D+03  0.1403732281D-01
      0.1039486850D+03  0.6884262226D-01
      0.2921015530D+02  0.2321844432D+00
      0.9286662960D+01  0.4679413484D+00
      0.3163926960D+01  0.3623119853D+00
 SP   3 1.00       0.000000000000
      0.7868272350D+01 -0.1193324198D+00  0.6899906659D-01
      0.1881288540D+01 -0.1608541517D+00  0.3164239610D+00
      0.5442492580D+00  0.1143456438D+01  0.7443082909D+00
 SP   1 1.00       0.000000000000
      0.1687144782D+00  0.1000000000D+01  0.1000000000D+01
 ****
      4 0
 S   6 1.00       0.000000000000
      0.3047524880D+04  0.1834737132D-02
      0.4573695180D+03  0.1403732281D-01
      0.1039486850D+03  0.6884262226D-01
      0.2921015530D+02  0.2321844432D+00
      0.9286662960D+01  0.4679413484D+00
      0.3163926960D+01  0.3623119853D+00
 SP   3 1.00       0.000000000000
      0.7868272350D+01 -0.1193324198D+00  0.6899906659D-01
      0.1881288540D+01 -0.1608541517D+00  0.3164239610D+00
      0.5442492580D+00  0.1143456438D+01  0.7443082909D+00
 SP   1 1.00       0.000000000000
      0.1687144782D+00  0.1000000000D+01  0.1000000000D+01
 ****
      5 0
 S   3 1.00       0.000000000000
      0.1873113696D+02  0.3349460434D-01
      0.2825394365D+01  0.2347269535D+00
      0.6401216923D+00  0.8137573261D+00
 S   1 1.00       0.000000000000
      0.1612777588D+00  0.1000000000D+01
 ****
      6 0
 S   3 1.00       0.000000000000
      0.1873113696D+02  0.3349460434D-01
      0.2825394365D+01  0.2347269535D+00
      0.6401216923D+00  0.8137573261D+00
 S   1 1.00       0.000000000000
      0.1612777588D+00  0.1000000000D+01
 ****
      7 0
 S   3 1.00       0.000000000000
      0.1873113696D+02  0.3349460434D-01
      0.2825394365D+01  0.2347269535D+00
      0.6401216923D+00  0.8137573261D+00
 S   1 1.00       0.000000000000
      0.1612777588D+00  0.1000000000D+01
 ****
      8 0
 S   3 1.00       0.000000000000
      0.1873113696D+02  0.3349460434D-01
      0.2825394365D+01  0.2347269535D+00
      0.6401216923D+00  0.8137573261D+00
 S   1 1.00       0.000000000000
      0.1612777588D+00  0.1000000000D+01
 ****

 Integral buffers will be    131072 words long.
 Raffenetti 2 integral format.
 Two-electron integral symmetry is turned off.
    44 basis functions,   104 primitive gaussians,    44 cartesian basis functions
    15 alpha electrons       15 beta electrons
       nuclear repulsion energy       101.4047653779 Hartrees.
 IExCor=  402 DFT=T Ex=B Corr=LYP ExCW=0 ScaHFX=  0.000000
 ScaDFX=  1.000000  1.000000  1.000000  1.000000 ScalE2=  1.000000  1.000000
 IRadAn=      0 IRanWt=     -1 IRanGd=            0 ICorTp=0
 NAtoms=    8 NActive=    8 NUniq=    8 SFac= 1.00D+00 NAtFMM=   60 NAOKFM=F Big=F
 Leave Link  301 at Thu Mar 12 11:34:38 2015, MaxMem= 1048576000 cpu:       0.5
 (Enter /usr/soft/chemie/g09/l302.exe)
 NPDir=0 NMtPBC=     1 NCelOv=     1 NCel=       1 NClECP=     1 NCelD=      1
         NCelK=      1 NCelE2=     1 NClLst=     1 CellRange=     0.0.
 One-electron integrals computed using PRISM.
 NBasis=    44 RedAO= T  NBF=    44
 NBsUse=    44 1.00D-06 NBFU=    44
 Precomputing XC quadrature grid using
 IXCGrd= 2 IRadAn=           0 IRanWt=          -1 IRanGd=           0 AccXCQ= 0.00D+00.
 NRdTot=     492 NPtTot=       62520 NUsed=       66081 NTot=       66113
 NSgBfM=    44    44    44    44    44 NAtAll=     8     8.
 Leave Link  302 at Thu Mar 12 11:34:38 2015, MaxMem= 1048576000 cpu:       1.3
 (Enter /usr/soft/chemie/g09/l303.exe)
 DipDrv:  MaxL=1.
 Leave Link  303 at Thu Mar 12 11:34:38 2015, MaxMem= 1048576000 cpu:       0.4
 (Enter /usr/soft/chemie/g09/l401.exe)
 Harris functional with IExCor=  402 diagonalized for initial guess.
 ExpMin= 1.61D-01 ExpMax= 5.48D+03 ExpMxC= 8.25D+02 IAcc=1 IRadAn=         1 AccDes= 0.00D+00
 HarFok:  IExCor=  402 AccDes= 0.00D+00 IRadAn=         1 IDoV= 1
 ScaDFX=  1.000000  1.000000  1.000000  1.000000
 FoFCou: FMM=F IPFlag=           0 FMFlag=      100000 FMFlg1=           0
         NFxFlg=           0 DoJE=T BraDBF=F KetDBF=T FulRan=T
         Omega=  0.000000  0.000000  1.000000  0.000000  0.000000 ICntrl=     500 IOpCl=  0
         NMat0=    1 NMatS0=    1 NMatT0=    0 NMatD0=    1 NMtDS0=    0 NMtDT0=    0
         I1Cent=           4 NGrid=           0.
 Symmetry not used in FoFCou.
 Harris En= -191.867609248089    
 Leave Link  401 at Thu Mar 12 11:34:39 2015, MaxMem= 1048576000 cpu:       1.4
 (Enter /usr/soft/chemie/g09/l502.exe)
 Closed shell SCF:
 Requested convergence on RMS density matrix=1.00D-08 within 128 cycles.
 Requested convergence on MAX density matrix=1.00D-06.
 Requested convergence on             energy=1.00D-06.
 No special actions if energy rises.
 Using DIIS extrapolation, IDIIS=  1040.
 Two-electron integral symmetry not used.
        65996 words used for storage of precomputed grid.
 Keep J ints in memory in canonical form, NReq=1444727.
 IEnd=       90582 IEndB=       90582 NGot=  1048576000 MDV=  1048013466
 LenX=  1048013466 LenY=  1048011089
 Symmetry not used in FoFDir.
 MinBra= 0 MaxBra= 1 Meth= 1.
 IRaf=       0 NMat=   1 IRICut=       1 DoRegI=T DoRafI=F ISym2E= 0 JSym2E=0.
 Integral accuracy reduced to 1.0D-05 until final iterations.

 Cycle   1  Pass 0  IDiag  1:
 E= -191.706918825414    
 DIIS: error= 3.83D-02 at cycle   1 NSaved=   1.
 NSaved= 1 IEnMin= 1 EnMin= -191.706918825414     IErMin= 1 ErrMin= 3.83D-02
 ErrMax= 3.83D-02 EMaxC= 1.00D-01 BMatC= 8.73D-02 BMatP= 8.73D-02
 IDIUse=3 WtCom= 6.17D-01 WtEn= 3.83D-01
 Coeff-Com:  0.100D+01
 Coeff-En:   0.100D+01
 Coeff:      0.100D+01
 Gap=     0.036 Goal=   None    Shift=    0.000
 GapD=    0.036 DampG=0.250 DampE=0.500 DampFc=0.2500 IDamp=-1.
 Damping current iteration by 2.50D-01
 RMSDP=3.09D-02 MaxDP=3.55D-01              OVMax= 3.29D-01

 Cycle   2  Pass 0  IDiag  1:
 E= -191.730673990757     Delta-E=       -0.023755165343 Rises=F Damp=T
 DIIS: error= 1.45D-02 at cycle   2 NSaved=   2.
 NSaved= 2 IEnMin= 2 EnMin= -191.730673990757     IErMin= 2 ErrMin= 1.45D-02
 ErrMax= 1.45D-02 EMaxC= 1.00D-01 BMatC= 1.07D-02 BMatP= 8.73D-02
 IDIUse=3 WtCom= 8.55D-01 WtEn= 1.45D-01
 Coeff-Com: -0.636D-01 0.106D+01
 Coeff-En:   0.239D+00 0.761D+00
 Coeff:     -0.198D-01 0.102D+01
 Gap=     0.105 Goal=   None    Shift=    0.000
 RMSDP=6.91D-03 MaxDP=5.54D-02 DE=-2.38D-02 OVMax= 3.32D-01

 Cycle   3  Pass 0  IDiag  1:
 E= -191.758908775127     Delta-E=       -0.028234784371 Rises=F Damp=F
 DIIS: error= 3.80D-02 at cycle   3 NSaved=   3.
 NSaved= 3 IEnMin= 3 EnMin= -191.758908775127     IErMin= 2 ErrMin= 1.45D-02
 ErrMax= 3.80D-02 EMaxC= 1.00D-01 BMatC= 3.42D-02 BMatP= 1.07D-02
 IDIUse=2 WtCom= 0.00D+00 WtEn= 1.00D+00
 EnCoef did     5 forward-backward iterations
 Coeff-En:   0.312D-01 0.224D+00 0.745D+00
 Coeff:      0.312D-01 0.224D+00 0.745D+00
 Gap=     0.050 Goal=   None    Shift=    0.000
 RMSDP=1.53D-02 MaxDP=2.07D-01 DE=-2.82D-02 OVMax= 3.53D-01

 Cycle   4  Pass 0  IDiag  1:
 E= -191.607142108866     Delta-E=        0.151766666262 Rises=F Damp=F
 DIIS: error= 1.06D-01 at cycle   4 NSaved=   4.
 NSaved= 4 IEnMin= 3 EnMin= -191.758908775127     IErMin= 2 ErrMin= 1.45D-02
 ErrMax= 1.06D-01 EMaxC= 1.00D-01 BMatC= 1.96D-01 BMatP= 1.07D-02
 IDIUse=2 WtCom= 0.00D+00 WtEn= 1.00D+00
 EnCoef did     2 forward-backward iterations
 Coeff-En:   0.378D-01 0.000D+00 0.727D+00 0.235D+00
 Coeff:      0.378D-01 0.000D+00 0.727D+00 0.235D+00
 Gap=     0.088 Goal=   None    Shift=    0.000
 RMSDP=9.64D-03 MaxDP=1.41D-01 DE= 1.52D-01 OVMax= 1.89D-01

 Cycle   5  Pass 0  IDiag  1:
 E= -191.786995950707     Delta-E=       -0.179853841841 Rises=F Damp=F
 DIIS: error= 1.67D-02 at cycle   5 NSaved=   5.
 NSaved= 5 IEnMin= 5 EnMin= -191.786995950707     IErMin= 2 ErrMin= 1.45D-02
 ErrMax= 1.67D-02 EMaxC= 1.00D-01 BMatC= 8.93D-03 BMatP= 1.07D-02
 IDIUse=3 WtCom= 8.33D-01 WtEn= 1.67D-01
 Coeff-Com: -0.105D+00 0.224D+00 0.330D+00-0.263D-01 0.578D+00
 Coeff-En:   0.000D+00 0.000D+00 0.267D+00 0.000D+00 0.733D+00
 Coeff:     -0.878D-01 0.187D+00 0.319D+00-0.219D-01 0.604D+00
 Gap=     0.105 Goal=   None    Shift=    0.000
 RMSDP=2.73D-03 MaxDP=2.71D-02 DE=-1.80D-01 OVMax= 4.86D-02

 Cycle   6  Pass 0  IDiag  1:
 E= -191.797271760752     Delta-E=       -0.010275810045 Rises=F Damp=F
 DIIS: error= 2.16D-03 at cycle   6 NSaved=   6.
 NSaved= 6 IEnMin= 6 EnMin= -191.797271760752     IErMin= 6 ErrMin= 2.16D-03
 ErrMax= 2.16D-03 EMaxC= 1.00D-01 BMatC= 1.56D-04 BMatP= 8.93D-03
 IDIUse=3 WtCom= 9.78D-01 WtEn= 2.16D-02
 Coeff-Com: -0.841D-01 0.142D+00 0.148D+00-0.463D-01 0.389D+00 0.452D+00
 Coeff-En:   0.000D+00 0.000D+00 0.000D+00 0.000D+00 0.000D+00 0.100D+01
 Coeff:     -0.823D-01 0.139D+00 0.145D+00-0.453D-01 0.380D+00 0.464D+00
 Gap=     0.103 Goal=   None    Shift=    0.000
 RMSDP=3.19D-04 MaxDP=4.16D-03 DE=-1.03D-02 OVMax= 6.23D-03

 Cycle   7  Pass 0  IDiag  1:
 E= -191.797439254356     Delta-E=       -0.000167493604 Rises=F Damp=F
 DIIS: error= 3.22D-04 at cycle   7 NSaved=   7.
 NSaved= 7 IEnMin= 7 EnMin= -191.797439254356     IErMin= 7 ErrMin= 3.22D-04
 ErrMax= 3.22D-04 EMaxC= 1.00D-01 BMatC= 2.46D-06 BMatP= 1.56D-04
 IDIUse=3 WtCom= 9.97D-01 WtEn= 3.22D-03
 Coeff-Com: -0.101D-02 0.171D-02-0.350D-02 0.383D-03-0.744D-03 0.101D+00
 Coeff-Com:  0.902D+00
 Coeff-En:   0.000D+00 0.000D+00 0.000D+00 0.000D+00 0.000D+00 0.000D+00
 Coeff-En:   0.100D+01
 Coeff:     -0.100D-02 0.171D-02-0.349D-02 0.382D-03-0.741D-03 0.101D+00
 Coeff:      0.902D+00
 Gap=     0.102 Goal=   None    Shift=    0.000
 RMSDP=4.85D-05 MaxDP=4.32D-04 DE=-1.67D-04 OVMax= 9.65D-04

 Cycle   8  Pass 0  IDiag  1:
 E= -191.797442051236     Delta-E=       -0.000002796880 Rises=F Damp=F
 DIIS: error= 3.30D-05 at cycle   8 NSaved=   8.
 NSaved= 8 IEnMin= 8 EnMin= -191.797442051236     IErMin= 8 ErrMin= 3.30D-05
 ErrMax= 3.30D-05 EMaxC= 1.00D-01 BMatC= 3.34D-08 BMatP= 2.46D-06
 IDIUse=1 WtCom= 1.00D+00 WtEn= 0.00D+00
 Coeff-Com: -0.243D-03 0.342D-03-0.274D-03-0.938D-04 0.161D-02 0.279D-01
 Coeff-Com:  0.244D+00 0.726D+00
 Coeff:     -0.243D-03 0.342D-03-0.274D-03-0.938D-04 0.161D-02 0.279D-01
 Coeff:      0.244D+00 0.726D+00
 Gap=     0.103 Goal=   None    Shift=    0.000
 RMSDP=9.65D-06 MaxDP=8.10D-05 DE=-2.80D-06 OVMax= 8.46D-05

 Initial convergence to 1.0D-05 achieved.  Increase integral accuracy.
 Cycle   9  Pass 1  IDiag  1:
 E= -191.797441180296     Delta-E=        0.000000870940 Rises=F Damp=F
 DIIS: error= 6.11D-06 at cycle   1 NSaved=   1.
 NSaved= 1 IEnMin= 1 EnMin= -191.797441180296     IErMin= 1 ErrMin= 6.11D-06
 ErrMax= 6.11D-06 EMaxC= 1.00D-01 BMatC= 3.42D-09 BMatP= 3.42D-09
 IDIUse=1 WtCom= 1.00D+00 WtEn= 0.00D+00
 Coeff-Com:  0.100D+01
 Coeff:      0.100D+01
 Gap=     0.102 Goal=   None    Shift=    0.000
 RMSDP=9.65D-06 MaxDP=8.10D-05 DE= 8.71D-07 OVMax= 7.50D-05

 Cycle  10  Pass 1  IDiag  1:
 E= -191.797441180531     Delta-E=       -0.000000000235 Rises=F Damp=F
 DIIS: error= 1.68D-05 at cycle   2 NSaved=   2.
 NSaved= 2 IEnMin= 2 EnMin= -191.797441180531     IErMin= 1 ErrMin= 6.11D-06
 ErrMax= 1.68D-05 EMaxC= 1.00D-01 BMatC= 4.66D-09 BMatP= 3.42D-09
 IDIUse=1 WtCom= 1.00D+00 WtEn= 0.00D+00
 Coeff-Com:  0.558D+00 0.442D+00
 Coeff:      0.558D+00 0.442D+00
 Gap=     0.103 Goal=   None    Shift=    0.000
 RMSDP=3.28D-06 MaxDP=3.95D-05 DE=-2.35D-10 OVMax= 1.00D-04

 Cycle  11  Pass 1  IDiag  1:
 E= -191.797441181410     Delta-E=       -0.000000000879 Rises=F Damp=F
 DIIS: error= 1.71D-05 at cycle   3 NSaved=   3.
 NSaved= 3 IEnMin= 3 EnMin= -191.797441181410     IErMin= 1 ErrMin= 6.11D-06
 ErrMax= 1.71D-05 EMaxC= 1.00D-01 BMatC= 4.71D-09 BMatP= 3.42D-09
 IDIUse=1 WtCom= 1.00D+00 WtEn= 0.00D+00
 Coeff-Com:  0.898D-01 0.468D+00 0.443D+00
 Coeff:      0.898D-01 0.468D+00 0.443D+00
 Gap=     0.102 Goal=   None    Shift=    0.000
 RMSDP=1.57D-06 MaxDP=2.00D-05 DE=-8.79D-10 OVMax= 4.12D-05

 Cycle  12  Pass 1  IDiag  1:
 E= -191.797441186001     Delta-E=       -0.000000004591 Rises=F Damp=F
 DIIS: error= 4.01D-06 at cycle   4 NSaved=   4.
 NSaved= 4 IEnMin= 4 EnMin= -191.797441186001     IErMin= 4 ErrMin= 4.01D-06
 ErrMax= 4.01D-06 EMaxC= 1.00D-01 BMatC= 4.38D-10 BMatP= 3.42D-09
 IDIUse=1 WtCom= 1.00D+00 WtEn= 0.00D+00
 Coeff-Com:  0.258D-01 0.330D+00 0.321D+00 0.323D+00
 Coeff:      0.258D-01 0.330D+00 0.321D+00 0.323D+00
 Gap=     0.102 Goal=   None    Shift=    0.000
 RMSDP=4.68D-07 MaxDP=4.95D-06 DE=-4.59D-09 OVMax= 1.04D-05

 Cycle  13  Pass 1  IDiag  1:
 E= -191.797441186393     Delta-E=       -0.000000000392 Rises=F Damp=F
 DIIS: error= 8.24D-07 at cycle   5 NSaved=   5.
 NSaved= 5 IEnMin= 5 EnMin= -191.797441186393     IErMin= 5 ErrMin= 8.24D-07
 ErrMax= 8.24D-07 EMaxC= 1.00D-01 BMatC= 2.58D-11 BMatP= 4.38D-10
 IDIUse=1 WtCom= 1.00D+00 WtEn= 0.00D+00
 Coeff-Com:  0.119D-02 0.132D+00 0.116D+00 0.212D+00 0.538D+00
 Coeff:      0.119D-02 0.132D+00 0.116D+00 0.212D+00 0.538D+00
 Gap=     0.102 Goal=   None    Shift=    0.000
 RMSDP=1.55D-07 MaxDP=1.80D-06 DE=-3.92D-10 OVMax= 1.94D-06

 Cycle  14  Pass 1  IDiag  1:
 E= -191.797441186417     Delta-E=       -0.000000000025 Rises=F Damp=F
 DIIS: error= 1.71D-07 at cycle   6 NSaved=   6.
 NSaved= 6 IEnMin= 6 EnMin= -191.797441186417     IErMin= 6 ErrMin= 1.71D-07
 ErrMax= 1.71D-07 EMaxC= 1.00D-01 BMatC= 9.71D-13 BMatP= 2.58D-11
 IDIUse=1 WtCom= 1.00D+00 WtEn= 0.00D+00
 Coeff-Com: -0.178D-03 0.578D-01 0.480D-01 0.104D+00 0.307D+00 0.484D+00
 Coeff:     -0.178D-03 0.578D-01 0.480D-01 0.104D+00 0.307D+00 0.484D+00
 Gap=     0.102 Goal=   None    Shift=    0.000
 RMSDP=3.09D-08 MaxDP=2.78D-07 DE=-2.47D-11 OVMax= 4.00D-07

 Cycle  15  Pass 1  IDiag  1:
 E= -191.797441186419     Delta-E=       -0.000000000002 Rises=F Damp=F
 DIIS: error= 2.75D-08 at cycle   7 NSaved=   7.
 NSaved= 7 IEnMin= 7 EnMin= -191.797441186419     IErMin= 7 ErrMin= 2.75D-08
 ErrMax= 2.75D-08 EMaxC= 1.00D-01 BMatC= 2.08D-14 BMatP= 9.71D-13
 IDIUse=1 WtCom= 1.00D+00 WtEn= 0.00D+00
 Coeff-Com: -0.157D-03 0.960D-02 0.780D-02 0.194D-01 0.674D-01 0.179D+00
 Coeff-Com:  0.717D+00
 Coeff:     -0.157D-03 0.960D-02 0.780D-02 0.194D-01 0.674D-01 0.179D+00
 Coeff:      0.717D+00
 Gap=     0.102 Goal=   None    Shift=    0.000
 RMSDP=5.58D-09 MaxDP=3.32D-08 DE=-1.76D-12 OVMax= 6.06D-08

 SCF Done:  E(RB-LYP) =  -191.797441186     A.U. after   15 cycles
             Convg  =    0.5579D-08             -V/T =  2.0060
 KE= 1.906626057145D+02 PE=-6.506020349517D+02 EE= 1.667372226729D+02
 Leave Link  502 at Thu Mar 12 11:34:39 2015, MaxMem= 1048576000 cpu:       5.6
 (Enter /usr/soft/chemie/g09/l601.exe)
 Copying SCF densities to generalized density rwf, IOpCl= 0 IROHF=0.

 **********************************************************************

            Population analysis using the SCF density.

 **********************************************************************

 Alpha  occ. eigenvalues --  -18.79665 -10.01140  -9.95613  -9.94901  -0.94416
 Alpha  occ. eigenvalues --   -0.72324  -0.58277  -0.51189  -0.42155  -0.41713
 Alpha  occ. eigenvalues --   -0.35215  -0.34494  -0.34452  -0.25452  -0.20110
 Alpha virt. eigenvalues --   -0.09861   0.01493   0.07751   0.08293   0.12113
 Alpha virt. eigenvalues --    0.15364   0.22625   0.27122   0.31645   0.46528
 Alpha virt. eigenvalues --    0.49185   0.54204   0.54605   0.58862   0.59963
 Alpha virt. eigenvalues --    0.61080   0.63236   0.76780   0.79270   0.83112
 Alpha virt. eigenvalues --    0.87291   0.88318   0.92409   0.94438   1.03919
 Alpha virt. eigenvalues --    1.08963   1.12203   1.26010   1.70522
     Molecular Orbital Coefficients:
                           1         2         3         4         5
                           O         O         O         O         O
     Eigenvalues --   -18.79665 -10.01140  -9.95613  -9.94901  -0.94416
   1 1   O  1S          0.99502  -0.00001  -0.00002   0.00000  -0.19195
   2        2S          0.03086  -0.00017  -0.00038  -0.00003   0.42492
   3        2PX         0.00221  -0.00073  -0.00003   0.00001   0.17296
   4        2PY         0.00091  -0.00023   0.00003  -0.00006   0.07198
   5        2PZ         0.00000   0.00000   0.00000   0.00000   0.00000
   6        3S         -0.02318  -0.00126   0.00155  -0.00034   0.41526
   7        3PX        -0.00675  -0.00160   0.00060  -0.00056   0.06792
   8        3PY        -0.00235  -0.00127  -0.00002   0.00035   0.02457
   9        3PZ         0.00000   0.00000   0.00000   0.00000   0.00000
  10 2   C  1S         -0.00004  -0.00024   0.99445  -0.03124  -0.00357
  11        2S         -0.00047  -0.00061   0.03719  -0.00370   0.01044
  12        2PX         0.00040   0.00041  -0.00021   0.00126  -0.00732
  13        2PY        -0.00012  -0.00006  -0.00001   0.00056  -0.00033
  14        2PZ         0.00000   0.00000   0.00000   0.00000   0.00000
  15        3S         -0.00177  -0.00029  -0.02969   0.01457   0.01125
  16        3PX        -0.00113  -0.00096   0.00274  -0.00660   0.01020
  17        3PY         0.00156   0.00026   0.00104  -0.00061  -0.01490
  18        3PZ         0.00000   0.00000   0.00000   0.00000   0.00000
  19 3   C  1S          0.00004   0.00046   0.03100   0.99454  -0.02022
  20        2S          0.00017  -0.00187  -0.00123   0.03838   0.03799
  21        2PX         0.00007   0.00090  -0.00137   0.00029  -0.02571
  22        2PY        -0.00019  -0.00071  -0.00067   0.00054   0.00928
  23        2PZ         0.00000   0.00000   0.00000   0.00000   0.00000
  24        3S         -0.00194   0.00890   0.01002  -0.03708   0.02314
  25        3PX         0.00365  -0.00359   0.00465  -0.00071  -0.02417
  26        3PY         0.00233   0.00418   0.00191  -0.00649  -0.00360
  27        3PZ         0.00000   0.00000   0.00000   0.00000   0.00000
  28 4   C  1S          0.00018   0.99491   0.00012  -0.00051  -0.11492
  29        2S         -0.00010   0.03660  -0.00060  -0.00201   0.23365
  30        2PX         0.00007  -0.00071  -0.00014  -0.00079  -0.16647
  31        2PY         0.00031  -0.00037   0.00003   0.00052  -0.07953
  32        2PZ         0.00000   0.00000   0.00000   0.00000   0.00000
  33        3S          0.01159  -0.02364   0.00026   0.01193   0.04707
  34        3PX        -0.00803  -0.00628   0.00118   0.00523   0.03981
  35        3PY        -0.00704  -0.00034   0.00072  -0.00243   0.03706
  36        3PZ         0.00000   0.00000   0.00000   0.00000   0.00000
  37 5   H  1S          0.00015  -0.00098  -0.00019  -0.00040   0.02671
  38        2S          0.00193   0.00545  -0.00046  -0.00037  -0.01497
  39 6   H  1S          0.00039  -0.00016  -0.00039  -0.00128   0.00658
  40        2S          0.00144   0.00124   0.00026   0.00364   0.00081
  41 7   H  1S          0.00022   0.00008  -0.00121  -0.00010  -0.00054
  42        2S          0.00118   0.00098   0.00511   0.00068  -0.01060
  43 8   H  1S         -0.00030  -0.00014  -0.00115  -0.00051   0.00359
  44        2S         -0.00016  -0.00007   0.00533  -0.00116   0.00439
                           6         7         8         9        10
                           O         O         O         O         O
     Eigenvalues --    -0.72324  -0.58277  -0.51189  -0.42155  -0.41713
   1 1   O  1S          0.03936  -0.06420   0.03625   0.00587   0.05987
   2        2S         -0.09197   0.14848  -0.08502  -0.01097  -0.12870
   3        2PX        -0.00791  -0.03590   0.01503  -0.05448   0.17182
   4        2PY        -0.01648   0.00555   0.09057   0.17020   0.04818
   5        2PZ         0.00000   0.00000   0.00000   0.00000   0.00000
   6        3S         -0.08507   0.18773  -0.09956  -0.03040  -0.25409
   7        3PX        -0.00053  -0.01477   0.01112  -0.03250   0.06842
   8        3PY        -0.00113   0.00388   0.04244   0.08353   0.01421
   9        3PZ         0.00000   0.00000   0.00000   0.00000   0.00000
  10 2   C  1S         -0.14209  -0.13485  -0.04392   0.00933  -0.00416
  11        2S          0.27849   0.27454   0.08792  -0.01901   0.01029
  12        2PX        -0.09782   0.07799   0.07375  -0.08586   0.38896
  13        2PY        -0.03697  -0.00388   0.15583  -0.29562  -0.07320
  14        2PZ         0.00000   0.00000   0.00000   0.00000   0.00000
  15        3S          0.20971   0.24902   0.09522  -0.05581  -0.00939
  16        3PX        -0.01672   0.03637   0.00962  -0.01740   0.14116
  17        3PY         0.00604  -0.00582   0.05274  -0.10460  -0.02493
  18        3PZ         0.00000   0.00000   0.00000   0.00000   0.00000
  19 3   C  1S         -0.15963   0.05921   0.09383  -0.01182   0.02903
  20        2S          0.31796  -0.12286  -0.19321   0.02091  -0.06234
  21        2PX         0.05967   0.21811  -0.02257   0.26242  -0.19586
  22        2PY         0.06848  -0.02399   0.19996  -0.09781  -0.23262
  23        2PZ         0.00000   0.00000   0.00000   0.00000   0.00000
  24        3S          0.19428  -0.10305  -0.20008   0.03907  -0.03721
  25        3PX         0.00329   0.03775   0.00173   0.09076  -0.01249
  26        3PY        -0.01569   0.00505   0.05543  -0.02586  -0.06568
  27        3PZ         0.00000   0.00000   0.00000   0.00000   0.00000
  28 4   C  1S         -0.05373   0.11222  -0.08658  -0.00777  -0.05383
  29        2S          0.10726  -0.24071   0.18703   0.01655   0.13173
  30        2PX         0.13593  -0.17511   0.01986  -0.13777  -0.07031
  31        2PY        -0.01338   0.00000   0.22459   0.31668  -0.04863
  32        2PZ         0.00000   0.00000   0.00000   0.00000   0.00000
  33        3S          0.09070  -0.21991   0.18268   0.03301   0.15137
  34        3PX         0.03824  -0.03996   0.02972  -0.05356  -0.02675
  35        3PY         0.00229  -0.00390   0.07795   0.11724  -0.04168
  36        3PZ         0.00000   0.00000   0.00000   0.00000   0.00000
  37 5   H  1S          0.03446  -0.09716   0.17981   0.15952   0.03381
  38        2S          0.00742  -0.03085   0.09228   0.10125   0.02043
  39 6   H  1S          0.07641  -0.04739  -0.17584   0.04984   0.10975
  40        2S          0.00503  -0.00952  -0.09277   0.03359   0.08562
  41 7   H  1S          0.07055   0.13616   0.03487   0.03329   0.22447
  42        2S          0.01838   0.04840   0.02138   0.02502   0.16716
  43 8   H  1S          0.07445   0.11074   0.12047  -0.18242  -0.01152
  44        2S          0.01184   0.04143   0.06921  -0.12395  -0.00507
                          11        12        13        14        15
                           O         O         O         O         O
     Eigenvalues --    -0.35215  -0.34494  -0.34452  -0.25452  -0.20110
   1 1   O  1S          0.07477   0.00000   0.02730   0.00000  -0.00096
   2        2S         -0.15889   0.00000  -0.05813   0.00000   0.00688
   3        2PX         0.43638   0.00000   0.09826   0.00000  -0.23857
   4        2PY         0.13106   0.00000   0.17896   0.00000   0.55757
   5        2PZ         0.00000   0.41727   0.00000  -0.31291   0.00000
   6        3S         -0.26717   0.00000  -0.10911   0.00000  -0.02612
   7        3PX         0.23160   0.00000   0.05038   0.00000  -0.16661
   8        3PY         0.07180   0.00000   0.09242   0.00000   0.37638
   9        3PZ         0.00000   0.24462   0.00000  -0.21786   0.00000
  10 2   C  1S         -0.02039   0.00000   0.00636   0.00000   0.00765
  11        2S          0.04891   0.00000  -0.01184   0.00000  -0.00908
  12        2PX        -0.16589   0.00000  -0.09136   0.00000   0.05774
  13        2PY        -0.08743   0.00000   0.29644   0.00000   0.02444
  14        2PZ         0.00000   0.10838   0.00000   0.38151   0.00000
  15        3S          0.10322   0.00000  -0.02182   0.00000  -0.12336
  16        3PX        -0.05627   0.00000  -0.02141   0.00000   0.10659
  17        3PY        -0.04227   0.00000   0.09036   0.00000   0.02660
  18        3PZ         0.00000   0.06036   0.00000   0.26809   0.00000
  19 3   C  1S          0.00564   0.00000  -0.01041   0.00000  -0.04127
  20        2S         -0.00442   0.00000   0.01418   0.00000   0.07128
  21        2PX         0.14875   0.00000   0.04980   0.00000  -0.18058
  22        2PY         0.14791   0.00000  -0.27551   0.00000   0.09598
  23        2PZ         0.00000   0.20279   0.00000   0.35571   0.00000
  24        3S         -0.06136   0.00000   0.06672   0.00000   0.42988
  25        3PX         0.01073   0.00000   0.00017   0.00000  -0.08658
  26        3PY        -0.01067   0.00000  -0.08130   0.00000   0.15169
  27        3PZ         0.00000   0.10629   0.00000   0.23583   0.00000
  28 4   C  1S         -0.02849   0.00000   0.01802   0.00000   0.00149
  29        2S          0.09186   0.00000  -0.03114   0.00000   0.01653
  30        2PX        -0.25624   0.00000  -0.23379   0.00000   0.04443
  31        2PY        -0.21228   0.00000   0.10127   0.00000  -0.10116
  32        2PZ         0.00000   0.38220   0.00000  -0.05209   0.00000
  33        3S          0.02682   0.00000  -0.10096   0.00000  -0.07519
  34        3PX         0.01900   0.00000  -0.07785   0.00000  -0.12919
  35        3PY        -0.01451   0.00000   0.06730   0.00000   0.10197
  36        3PZ         0.00000   0.22367   0.00000  -0.04171   0.00000
  37 5   H  1S         -0.12159   0.00000   0.03410   0.00000  -0.17295
  38        2S         -0.14341   0.00000   0.03956   0.00000  -0.29521
  39 6   H  1S         -0.12521   0.00000   0.20680   0.00000  -0.02539
  40        2S         -0.14322   0.00000   0.17658   0.00000  -0.06652
  41 7   H  1S         -0.03872   0.00000  -0.18236   0.00000   0.03426
  42        2S         -0.05356   0.00000  -0.17196   0.00000   0.03449
  43 8   H  1S         -0.05323   0.00000   0.20815   0.00000  -0.01239
  44        2S         -0.06556   0.00000   0.20295   0.00000  -0.03727
                          16        17        18        19        20
                           V         V         V         V         V
     Eigenvalues --    -0.09861   0.01493   0.07751   0.08293   0.12113
   1 1   O  1S          0.00000   0.00000   0.01403  -0.00861   0.00066
   2        2S          0.00000   0.00000  -0.03360   0.01321  -0.01177
   3        2PX         0.00000   0.00000  -0.05221   0.05699  -0.04690
   4        2PY         0.00000   0.00000  -0.09034  -0.00408  -0.07545
   5        2PZ         0.37843   0.24453   0.00000   0.00000   0.00000
   6        3S          0.00000   0.00000  -0.15153   0.13497   0.08432
   7        3PX         0.00000   0.00000  -0.05756   0.09104  -0.01410
   8        3PY         0.00000   0.00000  -0.16072  -0.02938  -0.08267
   9        3PZ         0.33068   0.27644   0.00000   0.00000   0.00000
  10 2   C  1S          0.00000   0.00000  -0.11491   0.01931   0.06045
  11        2S          0.00000   0.00000   0.18959  -0.03651  -0.09576
  12        2PX         0.00000   0.00000   0.17465  -0.15869   0.03633
  13        2PY         0.00000   0.00000   0.12896   0.21776  -0.18392
  14        2PZ         0.38484  -0.25664   0.00000   0.00000   0.00000
  15        3S          0.00000   0.00000   1.69991  -0.34887  -0.98044
  16        3PX         0.00000   0.00000   0.46938  -0.40267   0.22905
  17        3PY         0.00000   0.00000   0.30038   0.47031  -0.40500
  18        3PZ         0.40808  -0.44459   0.00000   0.00000   0.00000
  19 3   C  1S          0.00000   0.00000   0.01372   0.06447   0.01158
  20        2S          0.00000   0.00000  -0.03676  -0.10432  -0.01453
  21        2PX         0.00000   0.00000  -0.00102   0.03477   0.17810
  22        2PY         0.00000   0.00000  -0.05938   0.25324  -0.10443
  23        2PZ        -0.19897   0.45487   0.00000   0.00000   0.00000
  24        3S          0.00000   0.00000   0.12414  -1.00307  -0.11688
  25        3PX         0.00000   0.00000  -0.19500   0.18848   0.58984
  26        3PY         0.00000   0.00000  -0.12160   0.46895  -0.33030
  27        3PZ        -0.23181   0.63387   0.00000   0.00000   0.00000
  28 4   C  1S          0.00000   0.00000  -0.05336  -0.02196  -0.10961
  29        2S          0.00000   0.00000   0.09370   0.02164   0.18059
  30        2PX         0.00000   0.00000  -0.00735   0.02467   0.11380
  31        2PY         0.00000   0.00000   0.18414   0.16986   0.20915
  32        2PZ        -0.36405  -0.41903   0.00000   0.00000   0.00000
  33        3S          0.00000   0.00000   0.64030   0.42099   1.61808
  34        3PX         0.00000   0.00000  -0.15020   0.18657   0.52587
  35        3PY         0.00000   0.00000   0.44691   0.25634   0.44284
  36        3PZ        -0.29775  -0.51537   0.00000   0.00000   0.00000
  37 5   H  1S          0.00000   0.00000  -0.01395  -0.06379  -0.11454
  38        2S          0.00000   0.00000  -0.82293  -0.68321  -1.45837
  39 6   H  1S          0.00000   0.00000   0.02578   0.13192  -0.02192
  40        2S          0.00000   0.00000  -0.06867   1.33717  -0.26325
  41 7   H  1S          0.00000   0.00000  -0.09134   0.07287  -0.05031
  42        2S          0.00000   0.00000  -1.12037   1.02092  -0.18082
  43 8   H  1S          0.00000   0.00000  -0.06262  -0.04587   0.12809
  44        2S          0.00000   0.00000  -1.22058  -0.55157   1.12354
                          21        22        23        24        25
                           V         V         V         V         V
     Eigenvalues --     0.15364   0.22625   0.27122   0.31645   0.46528
   1 1   O  1S         -0.00487  -0.10286  -0.00623   0.01795   0.00000
   2        2S          0.01268   0.19116   0.05320   0.01251   0.00000
   3        2PX         0.03735   0.24079   0.15409  -0.05368   0.00000
   4        2PY        -0.11468   0.12007  -0.08571   0.02646   0.00000
   5        2PZ         0.00000   0.00000   0.00000   0.00000  -0.04032
   6        3S          0.07450   1.77671  -0.26246  -0.61966   0.00000
   7        3PX         0.07345   0.76113   0.12549  -0.36747   0.00000
   8        3PY        -0.13301   0.38805  -0.20877   0.13918   0.00000
   9        3PZ         0.00000   0.00000   0.00000   0.00000  -0.08485
  10 2   C  1S          0.05013   0.00209   0.07116   0.03910   0.00000
  11        2S         -0.08033  -0.05785  -0.02326   0.02218   0.00000
  12        2PX        -0.12818   0.24207   0.10964   0.04091   0.00000
  13        2PY         0.27387   0.02205  -0.09894   0.21988   0.00000
  14        2PZ         0.00000   0.00000   0.00000   0.00000  -0.65841
  15        3S         -0.60568   0.43864  -2.12743  -2.36688   0.00000
  16        3PX        -0.31757   0.10969   2.26250   1.73810   0.00000
  17        3PY         1.09300   0.21369   0.05888   1.55148   0.00000
  18        3PZ         0.00000   0.00000   0.00000   0.00000   0.64596
  19 3   C  1S         -0.10163  -0.02148  -0.12283   0.01066   0.00000
  20        2S          0.16881   0.10780   0.13673  -0.05758   0.00000
  21        2PX        -0.00567  -0.06150   0.05052   0.37130   0.00000
  22        2PY        -0.18272  -0.02070   0.36102  -0.04944   0.00000
  23        2PZ         0.00000   0.00000   0.00000   0.00000  -0.46458
  24        3S          1.65051  -0.31183   3.49803   1.08360   0.00000
  25        3PX         0.02505   0.25711   0.33523   3.15499   0.00000
  26        3PY        -0.88976  -0.65694   2.16350   0.28959   0.00000
  27        3PZ         0.00000   0.00000   0.00000   0.00000   0.19930
  28 4   C  1S          0.01346   0.06206   0.07488  -0.06242   0.00000
  29        2S         -0.03676  -0.02700  -0.07524   0.07721   0.00000
  30        2PX        -0.14349   0.21472  -0.12174   0.22047   0.00000
  31        2PY         0.20391   0.08386   0.24217  -0.41012   0.00000
  32        2PZ         0.00000   0.00000   0.00000   0.00000  -0.65848
  33        3S          0.13274  -1.05143  -1.63571   1.67773   0.00000
  34        3PX        -0.05069   1.92427  -1.36194   0.30026   0.00000
  35        3PY         0.51328   0.54255   0.36139  -1.62376   0.00000
  36        3PZ         0.00000   0.00000   0.00000   0.00000   0.71242
  37 5   H  1S          0.02378   0.07862   0.00708  -0.01899   0.00000
  38        2S         -0.52781  -0.09859   0.10793   1.06740   0.00000
  39 6   H  1S         -0.02783   0.10282  -0.00398  -0.01831   0.00000
  40        2S         -1.58450  -0.41811   1.02301   0.25432   0.00000
  41 7   H  1S          0.04688   0.03364   0.00315  -0.17703   0.00000
  42        2S          1.35339  -0.35585  -0.93525   0.09135   0.00000
  43 8   H  1S         -0.00154  -0.07099  -0.09501  -0.00529   0.00000
  44        2S         -0.83247  -0.36433   0.50874  -1.04126   0.00000
                          26        27        28        29        30
                           V         V         V         V         V
     Eigenvalues --     0.49185   0.54204   0.54605   0.58862   0.59963
   1 1   O  1S          0.01196   0.00000   0.03556   0.00000   0.00443
   2        2S          0.01926   0.00000  -0.14393   0.00000  -0.01765
   3        2PX         0.13273   0.00000  -0.10547   0.00000  -0.25437
   4        2PY        -0.15680   0.00000  -0.01916   0.00000   0.16912
   5        2PZ         0.00000  -0.12238   0.00000   0.00875   0.00000
   6        3S         -0.55812   0.00000  -0.22996   0.00000   0.27083
   7        3PX        -0.22140   0.00000  -0.32760   0.00000  -0.05352
   8        3PY        -0.10292   0.00000  -0.03841   0.00000   0.05114
   9        3PZ         0.00000  -0.06506   0.00000   0.15244   0.00000
  10 2   C  1S          0.00988   0.00000   0.02093   0.00000  -0.01472
  11        2S         -0.31666   0.00000  -0.34706   0.00000  -0.28972
  12        2PX         0.49864   0.00000   0.44511   0.00000  -0.20144
  13        2PY         0.42624   0.00000  -0.15161   0.00000   0.07520
  14        2PZ         0.00000   0.76352   0.00000   0.34394   0.00000
  15        3S         -0.71029   0.00000  -0.14484   0.00000   0.60796
  16        3PX        -0.36483   0.00000  -0.21720   0.00000   0.66072
  17        3PY        -0.62653   0.00000   0.84748   0.00000   0.02655
  18        3PZ         0.00000  -0.86583   0.00000  -0.79659   0.00000
  19 3   C  1S         -0.05797   0.00000  -0.01952   0.00000  -0.01786
  20        2S         -0.15166   0.00000  -0.38191   0.00000  -0.21696
  21        2PX        -0.53119   0.00000   0.31292   0.00000  -0.18788
  22        2PY         0.16607   0.00000  -0.26597   0.00000   0.22204
  23        2PZ         0.00000  -0.01694   0.00000  -0.96027   0.00000
  24        3S          0.43623   0.00000   0.10734   0.00000  -0.20459
  25        3PX         1.23409   0.00000   0.53258   0.00000   0.49507
  26        3PY         0.30544   0.00000   0.38015   0.00000  -0.72276
  27        3PZ         0.00000  -0.02269   0.00000   1.59890   0.00000
  28 4   C  1S          0.02719   0.00000  -0.03397   0.00000   0.00240
  29        2S         -0.22863   0.00000  -0.44214   0.00000   0.13233
  30        2PX        -0.12086   0.00000  -0.56701   0.00000  -0.64060
  31        2PY         0.01693   0.00000   0.02405   0.00000   0.28815
  32        2PZ         0.00000  -0.71671   0.00000   0.32473   0.00000
  33        3S          0.82213   0.00000   1.18617   0.00000   0.15296
  34        3PX        -0.56476   0.00000   0.51354   0.00000   1.22465
  35        3PY        -0.15370   0.00000  -0.51441   0.00000  -0.98289
  36        3PZ         0.00000   0.93447   0.00000  -0.84228   0.00000
  37 5   H  1S         -0.16781   0.00000  -0.37728   0.00000   0.38829
  38        2S          0.06898   0.00000   0.18073   0.00000   0.32688
  39 6   H  1S         -0.23796   0.00000   0.04671   0.00000  -0.42605
  40        2S          0.22912   0.00000   0.12932   0.00000  -0.15030
  41 7   H  1S         -0.10419   0.00000   0.18308   0.00000  -0.37876
  42        2S         -0.01019   0.00000   0.14999   0.00000  -0.28255
  43 8   H  1S          0.15433   0.00000  -0.34068   0.00000  -0.16771
  44        2S          0.29641   0.00000  -0.36028   0.00000  -0.12103
                          31        32        33        34        35
                           V         V         V         V         V
     Eigenvalues --     0.61080   0.63236   0.76780   0.79270   0.83112
   1 1   O  1S          0.02481  -0.00871   0.00479  -0.02329   0.02256
   2        2S         -0.05992   0.04605   0.00006   0.06481  -0.07282
   3        2PX        -0.27580   0.12418  -0.00161  -0.20500   0.29015
   4        2PY        -0.29715  -0.11976  -0.03065  -0.04878   0.19605
   5        2PZ         0.00000   0.00000   0.00000   0.00000   0.00000
   6        3S          0.22909  -0.10623  -0.15533   0.62816  -0.45405
   7        3PX        -0.19389   0.04609  -0.07567   0.58035  -0.56412
   8        3PY        -0.08258  -0.00719   0.12916  -0.14916  -0.34655
   9        3PZ         0.00000   0.00000   0.00000   0.00000   0.00000
  10 2   C  1S         -0.00147  -0.07599  -0.01169   0.01359   0.01240
  11        2S          0.22557  -0.40592   0.32095  -0.64744  -0.08234
  12        2PX        -0.10656  -0.45760  -0.29200  -0.26144  -0.14625
  13        2PY        -0.08632  -0.30412   0.68779   0.62434  -0.22479
  14        2PZ         0.00000   0.00000   0.00000   0.00000   0.00000
  15        3S         -0.21038   0.82026  -1.29638   2.09623  -0.55792
  16        3PX         0.02835   0.65833   1.17221   0.37082   0.55024
  17        3PY         0.10457   0.45344  -1.71993  -2.06827   0.22803
  18        3PZ         0.00000   0.00000   0.00000   0.00000   0.00000
  19 3   C  1S          0.01023   0.05234  -0.01069  -0.01328  -0.02126
  20        2S          0.41821  -0.46039   0.35471  -0.55067   0.58328
  21        2PX        -0.31629  -0.57492  -0.06704   0.41171  -0.23780
  22        2PY         0.21343  -0.30933  -0.58978  -0.04781  -0.72124
  23        2PZ         0.00000   0.00000   0.00000   0.00000   0.00000
  24        3S         -0.46785   0.81819  -0.27713   1.26420  -0.91925
  25        3PX         0.24173   0.34158   0.29239  -2.61823   0.83924
  26        3PY        -0.28402   0.41503   2.43277   0.32670   1.79310
  27        3PZ         0.00000   0.00000   0.00000   0.00000   0.00000
  28 4   C  1S         -0.03813   0.00529  -0.02335   0.00847   0.03286
  29        2S          0.75284  -0.13850   0.66556  -0.30429  -0.27993
  30        2PX        -0.70390   0.21812  -0.01126   0.05521  -0.12022
  31        2PY        -0.55371  -0.08831   0.43435  -0.61656  -0.31676
  32        2PZ         0.00000   0.00000   0.00000   0.00000   0.00000
  33        3S         -0.13238   0.12402  -1.75534  -1.19752   1.12886
  34        3PX         0.57663  -0.45854  -0.44857  -0.33368  -0.35233
  35        3PY         0.81728   0.46599  -1.27115   2.65253  -0.04286
  36        3PZ         0.00000   0.00000   0.00000   0.00000   0.00000
  37 5   H  1S          0.02973  -0.16849  -0.35446   0.34426   0.55317
  38        2S         -0.38114  -0.25102   1.39314  -1.76645  -0.78314
  39 6   H  1S          0.35224   0.16047  -0.06418  -0.09769  -0.51834
  40        2S         -0.10011   0.01638   1.46813  -0.13005   1.90365
  41 7   H  1S          0.16216  -0.48345   0.27797   0.32457   0.17013
  42        2S         -0.10103  -0.10029  -1.14364  -1.49639  -0.24916
  43 8   H  1S         -0.02439  -0.54137  -0.41498  -0.24303   0.26888
  44        2S          0.05859  -0.15630   1.43772   1.16580  -0.36130
                          36        37        38        39        40
                           V         V         V         V         V
     Eigenvalues --     0.87291   0.88318   0.92409   0.94438   1.03919
   1 1   O  1S          0.04131   0.01004   0.00000  -0.02850  -0.00135
   2        2S         -0.25947  -0.08479   0.00000   0.24477   0.00694
   3        2PX         0.50448   0.05728   0.00000  -0.28334   0.48922
   4        2PY         0.33520   0.08411   0.00000  -0.12895  -0.59276
   5        2PZ         0.00000   0.00000  -0.93855   0.00000   0.00000
   6        3S         -0.36083   0.08231   0.00000  -0.42512   0.33236
   7        3PX        -0.91555  -0.03441   0.00000   0.31185  -0.67577
   8        3PY        -0.33317  -0.24415   0.00000   0.30018   0.93971
   9        3PZ         0.00000   0.00000   1.27203   0.00000   0.00000
  10 2   C  1S         -0.00099  -0.03782   0.00000   0.00576   0.00668
  11        2S          0.13601   0.79403   0.00000   1.27572   0.63951
  12        2PX        -0.18952   0.62578   0.00000  -0.25421  -0.13181
  13        2PY         0.26455   0.23063   0.00000   0.04058  -0.01627
  14        2PZ         0.00000   0.00000  -0.06872   0.00000   0.00000
  15        3S         -0.62892  -0.92687   0.00000  -3.30609  -1.24141
  16        3PX         0.29024  -1.27887   0.00000   0.94820   0.41504
  17        3PY        -0.07370  -0.74554   0.00000   0.42987   0.06298
  18        3PZ         0.00000   0.00000   0.06432   0.00000   0.00000
  19 3   C  1S          0.03171  -0.01079   0.00000   0.01792  -0.01151
  20        2S         -0.18509   0.36841   0.00000   0.16866  -0.85074
  21        2PX        -0.13726   0.29240   0.00000  -0.33737   0.18691
  22        2PY         0.38257  -0.02314   0.00000  -0.03616  -0.02686
  23        2PZ         0.00000   0.00000   0.02362   0.00000   0.00000
  24        3S         -0.29679  -0.49062   0.00000  -0.48623   1.67202
  25        3PX         1.22786  -1.38936   0.00000   2.35466  -0.31651
  26        3PY        -0.83627   0.16691   0.00000  -0.20875  -0.26372
  27        3PZ         0.00000   0.00000   0.12994   0.00000   0.00000
  28 4   C  1S          0.01948   0.01976   0.00000  -0.03144   0.01299
  29        2S         -0.45291   0.12309   0.00000  -1.52744   0.17519
  30        2PX        -0.09042   0.06229   0.00000  -0.18016  -0.14446
  31        2PY         0.07118  -0.28326   0.00000   0.03653   0.02666
  32        2PZ         0.00000   0.00000   0.09605   0.00000   0.00000
  33        3S          2.37808  -0.52679   0.00000   3.64570  -0.71694
  34        3PX         0.41978  -0.56833   0.00000   1.19016   0.62690
  35        3PY        -0.94914   1.05543   0.00000  -0.76163  -0.29050
  36        3PZ         0.00000   0.00000  -0.60368   0.00000   0.00000
  37 5   H  1S          0.23126   0.36761   0.00000  -0.00663   0.11544
  38        2S         -0.10503  -1.01117   0.00000  -0.40442   0.20020
  39 6   H  1S          0.66543  -0.04206   0.00000  -0.00566  -0.36107
  40        2S         -1.09305   0.17113   0.00000   0.11401  -0.25070
  41 7   H  1S          0.35632  -0.70327   0.00000   0.13911   0.01818
  42        2S         -0.47781   1.33688   0.00000   0.10218   0.10880
  43 8   H  1S         -0.28501  -0.67559   0.00000  -0.06530   0.07468
  44        2S          0.50365   1.44153   0.00000   0.44798   0.15605
                          41        42        43        44
                           V         V         V         V
     Eigenvalues --     1.08963   1.12203   1.26010   1.70522
   1 1   O  1S          0.00954  -0.00884   0.00450   0.02929
   2        2S         -0.07628   0.14183   0.07556  -1.90883
   3        2PX        -0.21772  -0.02291  -0.16721  -0.23220
   4        2PY        -0.15991   0.48396  -0.00938  -0.08418
   5        2PZ         0.00000   0.00000   0.00000   0.00000
   6        3S         -0.62992   0.12683  -0.69794   4.67042
   7        3PX         0.16847   0.23486   0.10939   1.70716
   8        3PY         0.38807  -1.08553   0.00411   0.50879
   9        3PZ         0.00000   0.00000   0.00000   0.00000
  10 2   C  1S          0.00735   0.01627   0.01706   0.01123
  11        2S          0.06380   1.01920   0.31741   0.28219
  12        2PX         0.24300  -0.09515   0.13260  -0.16985
  13        2PY        -0.19595  -0.11296   0.06842   0.03164
  14        2PZ         0.00000   0.00000   0.00000   0.00000
  15        3S         -2.32839  -3.26372  -3.63010   0.06527
  16        3PX        -0.45118   0.79848   2.01067   0.55873
  17        3PY         2.29464   0.63929  -1.55902  -0.50476
  18        3PZ         0.00000   0.00000   0.00000   0.00000
  19 3   C  1S         -0.01633  -0.04268  -0.03877  -0.01666
  20        2S         -0.45079  -1.36257  -1.12723  -0.16966
  21        2PX        -0.30917  -0.17911  -0.02651  -0.04286
  22        2PY         0.02071  -0.07477  -0.49472   0.01082
  23        2PZ         0.00000   0.00000   0.00000   0.00000
  24        3S          1.70705   5.61994   4.22020   1.08294
  25        3PX         2.63465  -0.09840   0.47169  -1.00915
  26        3PY        -0.03560   0.45930   4.91668  -0.42002
  27        3PZ         0.00000   0.00000   0.00000   0.00000
  28 4   C  1S          0.00572   0.02480   0.02560  -0.00803
  29        2S          0.42220   0.65311   0.27740  -0.19285
  30        2PX         0.33441   0.02098  -0.15188   0.19118
  31        2PY         0.15685  -0.21756   0.13522  -0.02112
  32        2PZ         0.00000   0.00000   0.00000   0.00000
  33        3S         -0.02629  -2.07827  -3.04146  -2.85533
  34        3PX        -0.94659  -1.12175  -1.96317   1.80577
  35        3PY        -1.92081   2.05180  -1.09865   2.01789
  36        3PZ         0.00000   0.00000   0.00000   0.00000
  37 5   H  1S          0.70896  -0.34517   0.55298  -0.12948
  38        2S          0.58244  -0.46386   0.76883  -0.54193
  39 6   H  1S         -0.10458  -0.43352   0.79710  -0.18466
  40        2S         -0.12095  -0.38275   1.41501  -0.29476
  41 7   H  1S          0.67700   0.19075  -0.39955  -0.10259
  42        2S          0.73861   0.37196  -0.42117  -0.34207
  43 8   H  1S         -0.50124   0.05567   0.64098   0.16275
  44        2S         -0.46781   0.22131   0.82138   0.09574
     Density Matrix:
                           1         2         3         4         5
   1 1   O  1S          2.08770
   2        2S         -0.17666   0.52920
   3        2PX         0.03408  -0.06104   0.64197
   4        2PY         0.01480  -0.02041  -0.09099   0.81013
   5        2PZ         0.00000   0.00000   0.00000   0.00000   0.54405
   6        3S         -0.32021   0.60310  -0.19774  -0.12645   0.00000
   7        3PX         0.00867  -0.04752   0.34345  -0.09989   0.00000
   8        3PY         0.00612  -0.01899  -0.09348   0.51272   0.00000
   9        3PZ         0.00000   0.00000   0.00000   0.00000   0.34049
  10 2   C  1S          0.00109  -0.00353  -0.01332   0.00301   0.00000
  11        2S         -0.00419   0.00765   0.03243   0.00427   0.00000
  12        2PX         0.00689  -0.01169  -0.05163   0.01285   0.00000
  13        2PY        -0.00040  -0.00216  -0.01722   0.03211   0.00000
  14        2PZ         0.00000   0.00000   0.00000   0.00000  -0.14830
  15        3S         -0.00370   0.00034   0.13306  -0.12351   0.00000
  16        3PX        -0.00454   0.00672  -0.05230   0.10829   0.00000
  17        3PY         0.00822  -0.01236  -0.03224   0.02007   0.00000
  18        3PZ         0.00000   0.00000   0.00000   0.00000  -0.11740
  19 3   C  1S         -0.00184   0.00536   0.02795  -0.02961   0.00000
  20        2S          0.00530  -0.01350  -0.04765   0.04314   0.00000
  21        2PX        -0.01000   0.02490   0.10370  -0.08144   0.00000
  22        2PY        -0.00309   0.00253  -0.03027   0.02652   0.00000
  23        2PZ         0.00000   0.00000   0.00000   0.00000  -0.05337
  24        3S         -0.00908   0.01360  -0.25631   0.45642   0.00000
  25        3PX         0.01343  -0.01341   0.02547  -0.06683   0.00000
  26        3PY        -0.00635   0.02444  -0.11711   0.13223   0.00000
  27        3PZ         0.00000   0.00000   0.00000   0.00000  -0.05888
  28 4   C  1S          0.00973  -0.01905  -0.09069  -0.03687   0.00000
  29        2S         -0.00901   0.01592   0.21160   0.11098   0.00000
  30        2PX         0.03746  -0.09151  -0.34649  -0.18175   0.00000
  31        2PY         0.01826  -0.04343  -0.18886   0.00058   0.00000
  32        2PZ         0.00000   0.00000   0.00000   0.00000   0.35156
  33        3S          0.07078  -0.10983   0.12408  -0.05267   0.00000
  34        3PX        -0.02597   0.01867   0.07647  -0.17836   0.00000
  35        3PY        -0.02421   0.02258  -0.05981   0.18922   0.00000
  36        3PZ         0.00000   0.00000   0.00000   0.00000   0.21276
  37 5   H  1S          0.00821  -0.02296  -0.00158  -0.12077   0.00000
  38        2S          0.00575  -0.00939   0.01915  -0.30223   0.00000
  39 6   H  1S          0.00394  -0.00656  -0.02505   0.00648   0.00000
  40        2S         -0.00356   0.01409  -0.03469  -0.04580   0.00000
  41 7   H  1S          0.00271  -0.00345  -0.02250   0.00117   0.00000
  42        2S          0.00605  -0.00768  -0.04907  -0.01022   0.00000
  43 8   H  1S         -0.00169   0.00126   0.01201   0.00464   0.00000
  44        2S         -0.00209   0.00282   0.01265  -0.01555   0.00000
                           6         7         8         9        10
   6        3S          0.74966
   7        3PX        -0.10978   0.18936
   8        3PY        -0.07678  -0.08213   0.32994
   9        3PZ         0.00000   0.00000   0.00000   0.21461
  10 2   C  1S         -0.00692  -0.00863   0.00075   0.00000   2.06168
  11        2S          0.01985   0.02216   0.00459   0.00000  -0.08952
  12        2PX        -0.06174  -0.04804   0.00619   0.00000   0.00150
  13        2PY         0.00946  -0.00600   0.02243   0.00000   0.00060
  14        2PZ         0.00000   0.00000   0.00000  -0.11321   0.00000
  15        3S          0.01239   0.08510  -0.08155   0.00000  -0.20250
  16        3PX        -0.01839  -0.04272   0.07094   0.00000   0.00205
  17        3PY        -0.00564  -0.01666   0.01615   0.00000  -0.00104
  18        3PZ         0.00000   0.00000   0.00000  -0.08728   0.00000
  19 3   C  1S          0.00070   0.01673  -0.02484   0.00000   0.01935
  20        2S         -0.00428  -0.03014   0.04119   0.00000  -0.04302
  21        2PX         0.05753   0.07973  -0.06872   0.00000  -0.07803
  22        2PY         0.04748  -0.01036   0.03671   0.00000  -0.03996
  23        2PZ         0.00000   0.00000   0.00000  -0.05578   0.00000
  24        3S         -0.00026  -0.17099   0.31546   0.00000   0.02320
  25        3PX        -0.00737   0.02183  -0.04956   0.00000  -0.00176
  26        3PY         0.04089  -0.07041   0.09602   0.00000   0.00424
  27        3PZ         0.00000   0.00000   0.00000  -0.05075   0.00000
  28 4   C  1S          0.00959  -0.04273  -0.01701   0.00000  -0.00504
  29        2S         -0.06301   0.09363   0.05154   0.00000   0.01057
  30        2PX        -0.00136  -0.17486  -0.07973   0.00000   0.01398
  31        2PY        -0.00643  -0.08746  -0.02120   0.00000  -0.00062
  32        2PZ         0.00000   0.00000   0.00000   0.20969   0.00000
  33        3S         -0.16307   0.06264  -0.04567   0.00000   0.01276
  34        3PX         0.03645   0.05116  -0.11448   0.00000  -0.00548
  35        3PY         0.01553  -0.04026   0.11396   0.00000   0.00042
  36        3PZ         0.00000   0.00000   0.00000   0.12760   0.00000
  37 5   H  1S         -0.01628   0.00946  -0.09799   0.00000   0.00553
  38        2S          0.02312   0.03302  -0.21119   0.00000   0.00088
  39 6   H  1S         -0.02603  -0.01862  -0.00257   0.00000   0.01314
  40        2S          0.01056  -0.01855  -0.03789   0.00000   0.01655
  41 7   H  1S         -0.02570  -0.02257   0.00229   0.00000  -0.06370
  42        2S         -0.02019  -0.03481  -0.00296   0.00000  -0.01035
  43 8   H  1S          0.00853   0.01054   0.00179   0.00000  -0.06256
  44        2S          0.00624   0.01077  -0.01443   0.00000  -0.00756
                          11        12        13        14        15
  11        2S          0.33048
  12        2PX        -0.00272   0.43801
  13        2PY        -0.00161   0.00110   0.42906
  14        2PZ         0.00000   0.00000   0.00000   0.31459
  15        3S          0.28298  -0.03048   0.00961   0.00000   0.29167
  16        3PX         0.00945   0.15788  -0.00408   0.00000  -0.02487
  17        3PY         0.00592   0.00506   0.14381   0.00000   0.00217
  18        3PZ         0.00000   0.00000   0.00000   0.21764   0.00000
  19 3   C  1S         -0.04279   0.07697   0.03527   0.00000   0.01966
  20        2S          0.07194  -0.15530  -0.07332   0.00000   0.01714
  21        2PX         0.15103  -0.25734  -0.14491   0.00000   0.17634
  22        2PY         0.07845  -0.13959  -0.03520   0.00000   0.08928
  23        2PZ         0.00000   0.00000   0.00000   0.31537   0.00000
  24        3S          0.00030  -0.06187  -0.02233   0.00000  -0.13440
  25        3PX         0.02162  -0.03304  -0.05782   0.00000   0.03333
  26        3PY         0.00165   0.00133   0.00437   0.00000  -0.02586
  27        3PZ         0.00000   0.00000   0.00000   0.20298   0.00000
  28 4   C  1S          0.00882  -0.01646   0.00428   0.00000   0.00852
  29        2S         -0.02323   0.04242  -0.01072   0.00000  -0.02214
  30        2PX        -0.03697   0.05328  -0.00228   0.00000  -0.06714
  31        2PY        -0.00399  -0.01506  -0.01686   0.00000  -0.02233
  32        2PZ         0.00000   0.00000   0.00000   0.04310   0.00000
  33        3S         -0.02893   0.08718  -0.05798   0.00000  -0.01336
  34        3PX         0.01301  -0.02852  -0.01348   0.00000   0.04848
  35        3PY         0.00352  -0.03838   0.00834   0.00000  -0.02878
  36        3PZ         0.00000   0.00000   0.00000   0.01666   0.00000
  37 5   H  1S         -0.01692   0.01728  -0.01201   0.00000  -0.00145
  38        2S         -0.00996   0.01234  -0.00030   0.00000   0.03481
  39 6   H  1S         -0.03058   0.02926   0.03764   0.00000  -0.06114
  40        2S         -0.03523   0.05226   0.06488   0.00000  -0.04641
  41 7   H  1S          0.12334   0.23161  -0.14762   0.00000   0.08768
  42        2S          0.04142   0.18617  -0.12523   0.00000   0.01737
  43 8   H  1S          0.12024   0.02099   0.27283   0.00000   0.11302
  44        2S          0.03608   0.01200   0.22436   0.00000   0.03927
                          16        17        18        19        20
  16        3PX         0.07413
  17        3PY         0.00326   0.05060
  18        3PZ         0.00000   0.00000   0.15103
  19 3   C  1S         -0.00229   0.00321   0.00000   2.06221
  20        2S         -0.02627  -0.01083   0.00000  -0.08793   0.33214
  21        2PX        -0.10890  -0.06175   0.00000   0.00204   0.00089
  22        2PY        -0.04666  -0.00321   0.00000   0.00176   0.00240
  23        2PZ         0.00000   0.00000   0.21520   0.00000   0.00000
  24        3S          0.06698   0.01562   0.00000  -0.22648   0.29502
  25        3PX        -0.02415  -0.02332   0.00000   0.00799  -0.01682
  26        3PY         0.02134   0.00869   0.00000  -0.01078  -0.00690
  27        3PZ         0.00000   0.00000   0.13928   0.00000   0.00000
  28 4   C  1S         -0.00814   0.00291   0.00000   0.01498  -0.03341
  29        2S          0.01836  -0.00566   0.00000  -0.03353   0.05748
  30        2PX         0.01298   0.02484   0.00000  -0.05778   0.11406
  31        2PY        -0.02362  -0.00706   0.00000   0.04421  -0.09166
  32        2PZ         0.00000   0.00000   0.01821   0.00000   0.00000
  33        3S          0.01218  -0.01744   0.00000   0.01772   0.01439
  34        3PX        -0.03486  -0.00717   0.00000   0.00971   0.00640
  35        3PY         0.00659   0.00354   0.00000  -0.00803   0.00159
  36        3PZ         0.00000   0.00000   0.00464   0.00000   0.00000
  37 5   H  1S         -0.02486  -0.00810   0.00000   0.01973  -0.04186
  38        2S         -0.04728  -0.00800   0.00000   0.03185  -0.06256
  39 6   H  1S          0.01983   0.01344   0.00000  -0.06427   0.12034
  40        2S          0.01470   0.01955   0.00000  -0.00854   0.02924
  41 7   H  1S          0.08988  -0.04306   0.00000   0.01267  -0.02866
  42        2S          0.07018  -0.03604   0.00000   0.01522  -0.02851
  43 8   H  1S          0.00549   0.09241   0.00000   0.01045  -0.02776
  44        2S         -0.00229   0.07326   0.00000   0.01271  -0.03270
                          21        22        23        24        25
  21        2PX         0.43350
  22        2PY         0.00990   0.43201
  23        2PZ         0.00000   0.00000   0.33531
  24        3S         -0.14574  -0.01083   0.00000   0.57282
  25        3PX         0.10501  -0.02660   0.00000  -0.07596   0.03615
  26        3PY        -0.05589   0.12607   0.00000   0.09485  -0.02892
  27        3PZ         0.00000   0.00000   0.21088   0.00000   0.00000
  28 4   C  1S          0.06395  -0.04242   0.00000   0.01365   0.00531
  29        2S         -0.13725   0.08830   0.00000   0.01832  -0.02957
  30        2PX        -0.21283   0.15308   0.00000   0.10622  -0.04072
  31        2PY         0.16107  -0.09084   0.00000  -0.11783   0.07623
  32        2PZ         0.00000   0.00000   0.11796   0.00000   0.00000
  33        3S         -0.11269   0.06919   0.00000  -0.08180  -0.00164
  34        3PX         0.01065   0.06643   0.00000  -0.11339   0.00910
  35        3PY         0.03656   0.00702   0.00000   0.08313   0.00254
  36        3PZ         0.00000   0.00000   0.06104   0.00000   0.00000
  37 5   H  1S          0.05240  -0.05311   0.00000  -0.15657   0.04769
  38        2S          0.09708  -0.11109   0.00000  -0.25281   0.06466
  39 6   H  1S         -0.02827  -0.27413   0.00000   0.12707   0.00408
  40        2S         -0.01631  -0.23478   0.00000   0.02102   0.01142
  41 7   H  1S         -0.04624   0.00172   0.00000  -0.01888   0.00449
  42        2S         -0.07499   0.01141   0.00000  -0.00902  -0.00240
  43 8   H  1S         -0.03029  -0.03864   0.00000  -0.03166  -0.02267
  44        2S         -0.03278  -0.08439   0.00000  -0.03747  -0.01397
                          26        27        28        29        30
  26        3PY         0.07629
  27        3PZ         0.00000   0.13382
  28 4   C  1S          0.00798   0.00000   2.06026
  29        2S          0.00354   0.00000  -0.09957   0.37534
  30        2PX         0.07070   0.00000  -0.00449  -0.01108   0.44692
  31        2PY        -0.02674   0.00000  -0.00414  -0.00703   0.00379
  32        2PZ         0.00000   0.05668   0.00000   0.00000   0.00000
  33        3S         -0.01401   0.00000  -0.17081   0.26358   0.08967
  34        3PX        -0.01940   0.00000  -0.04044   0.05193   0.04602
  35        3PY         0.02798   0.00000  -0.01759   0.03825  -0.04867
  36        3PZ         0.00000   0.02788   0.00000   0.00000   0.00000
  37 5   H  1S         -0.05044   0.00000  -0.06320   0.11784   0.02393
  38        2S         -0.09101   0.00000  -0.00447   0.01453   0.01945
  39 6   H  1S         -0.07805   0.00000   0.01169  -0.02966  -0.03576
  40        2S         -0.06940   0.00000   0.02026  -0.04443  -0.03563
  41 7   H  1S          0.01269   0.00000  -0.01172   0.02800   0.04047
  42        2S          0.01870   0.00000  -0.01185   0.03062   0.07294
  43 8   H  1S         -0.01341   0.00000   0.00945  -0.02283  -0.03422
  44        2S         -0.02811   0.00000   0.00830  -0.02083  -0.03975
                          31        32        33        34        35
  31        2PY         0.45029
  32        2PZ         0.00000   0.29759
  33        3S          0.06174   0.00000   0.26716
  34        3PX        -0.02302   0.00000   0.06389   0.06471
  35        3PY         0.10652   0.00000  -0.00069  -0.03954   0.07630
  36        3PZ         0.00000   0.17532   0.00000   0.00000   0.00000
  37 5   H  1S          0.26687   0.00000   0.15060   0.03908   0.03836
  38        2S          0.23440   0.00000   0.08858   0.05995  -0.01516
  39 6   H  1S          0.03900   0.00000  -0.03708  -0.04192   0.00262
  40        2S          0.08105   0.00000  -0.03385  -0.02823   0.00075
  41 7   H  1S         -0.01431   0.00000   0.06535  -0.00097  -0.02269
  42        2S         -0.00868   0.00000   0.06778   0.00216  -0.02038
  43 8   H  1S          0.00440   0.00000  -0.04941  -0.00678   0.00375
  44        2S          0.02854   0.00000  -0.03901  -0.00885   0.00384
                          36        37        38        39        40
  36        3PZ         0.10353
  37 5   H  1S          0.00000   0.23225
  38        2S          0.00000   0.21226   0.25947
  39 6   H  1S          0.00000   0.02825   0.05325   0.22534
  40        2S          0.00000   0.05526   0.08816   0.16871   0.14663
  41 7   H  1S          0.00000   0.00185  -0.00853  -0.02927  -0.02555
  42        2S          0.00000   0.00764  -0.00515  -0.02972  -0.02438
  43 8   H  1S          0.00000  -0.00042   0.01804   0.03790   0.05247
  44        2S          0.00000   0.02068   0.04182   0.06238   0.07271
                          41        42        43        44
  41 7   H  1S          0.22431
  42        2S          0.16320   0.13095
  43 8   H  1S         -0.04090  -0.06120   0.22411
  44        2S         -0.06426  -0.06588   0.16536   0.13792
    Full Mulliken population analysis:
                           1         2         3         4         5
   1 1   O  1S          2.08770
   2        2S         -0.04128   0.52920
   3        2PX         0.00000   0.00000   0.64197
   4        2PY         0.00000   0.00000   0.00000   0.81013
   5        2PZ         0.00000   0.00000   0.00000   0.00000   0.54405
   6        3S         -0.05356   0.46055   0.00000   0.00000   0.00000
   7        3PX         0.00000   0.00000   0.17225   0.00000   0.00000
   8        3PY         0.00000   0.00000   0.00000   0.25714   0.00000
   9        3PZ         0.00000   0.00000   0.00000   0.00000   0.17076
  10 2   C  1S          0.00000   0.00000   0.00000   0.00000   0.00000
  11        2S          0.00000   0.00000   0.00000   0.00000   0.00000
  12        2PX         0.00000   0.00000   0.00000   0.00000   0.00000
  13        2PY         0.00000   0.00000   0.00000   0.00000   0.00000
  14        2PZ         0.00000   0.00000   0.00000   0.00000   0.00000
  15        3S          0.00000   0.00000   0.00013  -0.00001   0.00000
  16        3PX         0.00000  -0.00002   0.00023  -0.00004   0.00000
  17        3PY         0.00000   0.00000   0.00001   0.00001   0.00000
  18        3PZ         0.00000   0.00000   0.00000   0.00000  -0.00004
  19 3   C  1S          0.00000   0.00000   0.00000   0.00000   0.00000
  20        2S          0.00000  -0.00001  -0.00007  -0.00001   0.00000
  21        2PX         0.00000  -0.00005  -0.00043  -0.00005   0.00000
  22        2PY         0.00000   0.00000  -0.00002   0.00001   0.00000
  23        2PZ         0.00000   0.00000   0.00000   0.00000  -0.00002
  24        3S         -0.00003   0.00042  -0.00760  -0.00170   0.00000
  25        3PX        -0.00019   0.00131  -0.00203  -0.00080   0.00000
  26        3PY        -0.00001   0.00030  -0.00140   0.00191   0.00000
  27        3PZ         0.00000   0.00000   0.00000   0.00000  -0.00094
  28 4   C  1S          0.00000  -0.00011  -0.00123  -0.00021   0.00000
  29        2S         -0.00016   0.00241   0.03594   0.00809   0.00000
  30        2PX        -0.00129   0.02068   0.07177   0.02220   0.00000
  31        2PY        -0.00027   0.00421   0.02307   0.00001   0.00000
  32        2PZ         0.00000   0.00000   0.00000   0.00000   0.02726
  33        3S          0.00334  -0.03000   0.01638  -0.00298   0.00000
  34        3PX         0.00215  -0.00776  -0.00442   0.01571   0.00000
  35        3PY         0.00086  -0.00403   0.00527   0.02075   0.00000
  36        3PZ         0.00000   0.00000   0.00000   0.00000   0.03137
  37 5   H  1S          0.00000  -0.00005   0.00000  -0.00042   0.00000
  38        2S          0.00006  -0.00069   0.00072  -0.01392   0.00000
  39 6   H  1S          0.00000   0.00000   0.00000   0.00000   0.00000
  40        2S         -0.00001   0.00025  -0.00054   0.00043   0.00000
  41 7   H  1S          0.00000   0.00000   0.00000   0.00000   0.00000
  42        2S          0.00000   0.00000   0.00000   0.00000   0.00000
  43 8   H  1S          0.00000   0.00000   0.00000   0.00000   0.00000
  44        2S          0.00000   0.00000   0.00000   0.00000   0.00000
                           6         7         8         9        10
   6        3S          0.74966
   7        3PX         0.00000   0.18936
   8        3PY         0.00000   0.00000   0.32994
   9        3PZ         0.00000   0.00000   0.00000   0.21461
  10 2   C  1S          0.00000   0.00000   0.00000   0.00000   2.06168
  11        2S          0.00000   0.00002   0.00000   0.00000  -0.01961
  12        2PX         0.00003   0.00010   0.00000   0.00000   0.00000
  13        2PY         0.00000   0.00000   0.00000   0.00000   0.00000
  14        2PZ         0.00000   0.00000   0.00000  -0.00002   0.00000
  15        3S          0.00009   0.00170  -0.00013   0.00000  -0.03731
  16        3PX         0.00046   0.00264  -0.00039   0.00000   0.00000
  17        3PY         0.00001   0.00009   0.00011   0.00000   0.00000
  18        3PZ         0.00000   0.00000   0.00000  -0.00062   0.00000
  19 3   C  1S          0.00000   0.00009   0.00002   0.00000   0.00000
  20        2S         -0.00010  -0.00221  -0.00038   0.00000  -0.00080
  21        2PX        -0.00213  -0.00819  -0.00102   0.00000  -0.00289
  22        2PY         0.00022  -0.00015   0.00051   0.00000  -0.00072
  23        2PZ         0.00000   0.00000   0.00000  -0.00088   0.00000
  24        3S         -0.00003  -0.03411  -0.00790   0.00000   0.00147
  25        3PX         0.00186  -0.00763  -0.00284   0.00000  -0.00020
  26        3PY         0.00130  -0.00404   0.00960   0.00000   0.00024
  27        3PZ         0.00000   0.00000   0.00000  -0.00544   0.00000
  28 4   C  1S          0.00058  -0.00553  -0.00094   0.00000   0.00000
  29        2S         -0.02202   0.04818   0.01138   0.00000   0.00000
  30        2PX         0.00041   0.03585   0.01601   0.00000   0.00000
  31        2PY         0.00082   0.01756  -0.00375   0.00000   0.00000
  32        2PZ         0.00000   0.00000   0.00000   0.05515   0.00000
  33        3S         -0.08724   0.02920  -0.00914   0.00000   0.00007
  34        3PX        -0.02150   0.00034   0.02524   0.00000  -0.00011
  35        3PY        -0.00393   0.00888   0.04854   0.00000   0.00000
  36        3PZ         0.00000   0.00000   0.00000   0.06642   0.00000
  37 5   H  1S         -0.00068   0.00072  -0.00923   0.00000   0.00000
  38        2S          0.00473   0.00646  -0.05087   0.00000   0.00000
  39 6   H  1S         -0.00015  -0.00035   0.00003   0.00000   0.00000
  40        2S          0.00077  -0.00226   0.00281   0.00000   0.00023
  41 7   H  1S          0.00000   0.00000   0.00000   0.00000  -0.00207
  42        2S         -0.00001  -0.00006   0.00000   0.00000  -0.00095
  43 8   H  1S          0.00000   0.00000   0.00000   0.00000  -0.00200
  44        2S          0.00002   0.00010  -0.00005   0.00000  -0.00069
                          11        12        13        14        15
  11        2S          0.33048
  12        2PX         0.00000   0.43801
  13        2PY         0.00000   0.00000   0.42906
  14        2PZ         0.00000   0.00000   0.00000   0.31459
  15        3S          0.22986   0.00000   0.00000   0.00000   0.29167
  16        3PX         0.00000   0.08995   0.00000   0.00000   0.00000
  17        3PY         0.00000   0.00000   0.08193   0.00000   0.00000
  18        3PZ         0.00000   0.00000   0.00000   0.12400   0.00000
  19 3   C  1S         -0.00080  -0.00285  -0.00063   0.00000   0.00125
  20        2S          0.01431   0.03875   0.00888   0.00000   0.00609
  21        2PX         0.03768   0.06324   0.02523   0.00000   0.04002
  22        2PY         0.00951   0.02431  -0.00099   0.00000   0.00984
[...]
      6  0.000000D+00  0.000000D+00  0.283123D-02  0.000000D+00  0.000000D+00
      7 -0.757376D-01  0.309118D-02  0.000000D+00 -0.417738D+00 -0.151440D+00
      8 -0.138708D-01  0.244456D-01  0.000000D+00 -0.162372D+00 -0.194405D+00
      9  0.000000D+00  0.000000D+00  0.188457D-01  0.000000D+00  0.000000D+00
     10 -0.501897D+00 -0.182008D+00  0.000000D+00 -0.520515D-01  0.487497D-02
     11 -0.188895D+00 -0.180674D+00  0.000000D+00 -0.144269D-01  0.146615D-01
     12  0.000000D+00  0.000000D+00 -0.554363D-01  0.000000D+00  0.000000D+00
     13 -0.142389D-01 -0.444365D-01  0.000000D+00  0.142161D-02  0.133849D-02
     14 -0.238061D-01 -0.125168D-01  0.000000D+00 -0.986431D-05  0.140873D-03
     15  0.000000D+00  0.000000D+00  0.166507D-01  0.000000D+00  0.000000D+00
     16  0.249332D-02 -0.352366D-02  0.000000D+00 -0.946815D-03 -0.314224D-01
     17  0.606311D-03  0.360815D-02  0.000000D+00  0.238311D-02 -0.800803D-02
     18  0.000000D+00  0.000000D+00 -0.193415D-02  0.000000D+00  0.000000D+00
     19 -0.177039D-02  0.842596D-03  0.000000D+00 -0.251060D+00  0.122877D+00
     20 -0.119948D-02  0.589386D-03  0.000000D+00  0.127603D+00 -0.134859D+00
     21  0.000000D+00  0.000000D+00 -0.313382D-02  0.000000D+00  0.000000D+00
     22  0.900813D-03  0.148683D-02  0.000000D+00 -0.587456D-01 -0.187219D-01
     23 -0.692282D-03 -0.170263D-03  0.000000D+00 -0.223622D-01 -0.317928D+00
     24  0.000000D+00  0.000000D+00  0.148250D-02  0.000000D+00  0.000000D+00
                6             7             8             9            10 
      6  0.114625D+00
      7  0.000000D+00  0.699504D+00
      8  0.000000D+00  0.125598D+00  0.674303D+00
      9 -0.492652D-01  0.000000D+00  0.000000D+00  0.114129D+00
     10  0.000000D+00 -0.132440D+00  0.613982D-01  0.000000D+00  0.739224D+00
     11  0.000000D+00  0.708907D-01 -0.165274D+00  0.000000D+00  0.119879D+00
     12  0.299011D-02  0.000000D+00  0.000000D+00 -0.728363D-01  0.000000D+00
     13  0.000000D+00  0.153289D-02  0.267747D-01  0.000000D+00 -0.558282D-01
     14  0.000000D+00 -0.375049D-02 -0.175123D-01  0.000000D+00 -0.119145D-03
     15 -0.146528D-02  0.000000D+00  0.000000D+00  0.148093D-01  0.000000D+00
     16  0.000000D+00 -0.563409D-01 -0.246829D-01  0.000000D+00  0.325953D-02
     17  0.000000D+00 -0.263790D-01 -0.320054D+00  0.000000D+00 -0.689583D-02
     18  0.505841D-02  0.000000D+00  0.000000D+00 -0.399759D-01  0.000000D+00
     19  0.000000D+00 -0.192446D-01  0.187187D-01  0.000000D+00 -0.541561D-03
     20  0.000000D+00 -0.170675D-01  0.108406D-01  0.000000D+00 -0.910405D-03
     21 -0.379066D-01  0.000000D+00  0.000000D+00  0.865146D-02  0.000000D+00
     22  0.000000D+00  0.464324D-03 -0.315642D-01  0.000000D+00  0.275350D-03
     23  0.000000D+00 -0.942517D-03 -0.123429D-01  0.000000D+00  0.378099D-02
     24 -0.368679D-01  0.000000D+00  0.000000D+00  0.564231D-02  0.000000D+00
               11            12            13            14            15 
     11  0.603279D+00
     12  0.000000D+00  0.171445D+00
     13 -0.819364D-02  0.000000D+00  0.701908D-01
     14 -0.253764D+00  0.000000D+00  0.238169D-01  0.283036D+00
     15  0.000000D+00 -0.542468D-01  0.000000D+00  0.000000D+00  0.217636D-01
     16  0.293481D-01  0.000000D+00 -0.358479D-02  0.203060D-02  0.000000D+00
     17 -0.164673D-01  0.000000D+00  0.210479D-02 -0.908720D-03  0.000000D+00
     18  0.000000D+00  0.332679D-02  0.000000D+00  0.000000D+00  0.299978D-02
     19 -0.492284D-02  0.000000D+00  0.344848D-03  0.419837D-03  0.000000D+00
     20 -0.241394D-02  0.000000D+00 -0.278263D-03  0.723099D-03  0.000000D+00
     21  0.000000D+00  0.136498D-01  0.000000D+00  0.000000D+00 -0.105296D-02
     22 -0.367992D-02  0.000000D+00  0.161706D-03  0.141829D-02  0.000000D+00
     23  0.653342D-03  0.000000D+00 -0.112650D-02  0.801502D-03  0.000000D+00
     24  0.000000D+00 -0.889242D-02  0.000000D+00  0.000000D+00  0.541636D-03
               16            17            18            19            20 
     16  0.578267D-01
     17  0.294712D-01  0.340141D+00
     18  0.000000D+00  0.000000D+00  0.264910D-01
     19  0.110422D-02 -0.400753D-03  0.000000D+00  0.267124D+00
     20  0.382216D-03  0.108457D-02  0.000000D+00 -0.132968D+00  0.135244D+00
     21  0.000000D+00  0.000000D+00 -0.676149D-02  0.000000D+00  0.000000D+00
     22 -0.381121D-02 -0.889865D-03  0.000000D+00  0.404371D-02  0.244379D-01
     23 -0.160322D-02  0.604762D-03  0.000000D+00 -0.456698D-02 -0.112087D-01
     24  0.000000D+00  0.000000D+00  0.107955D-01  0.000000D+00  0.000000D+00
               21            22            23            24 
     21  0.225448D-01
     22  0.000000D+00  0.567109D-01
     23  0.000000D+00  0.275127D-01  0.339590D+00
     24  0.400889D-02  0.000000D+00  0.000000D+00  0.232894D-01
 Force constants in internal coordinates: 
                1             2             3             4             5 
      1  0.675348D+00
      2 -0.123643D-01  0.573314D+00
      3  0.642765D-03  0.342044D-02  0.349604D+00
      4  0.576983D-03  0.658415D-02  0.111462D-02  0.342252D+00
      5  0.531971D-01  0.259011D-01 -0.100678D-02 -0.111307D-02  0.301272D+00
      6  0.206468D-02  0.363680D-02  0.826405D-03 -0.310157D-03  0.247031D-02
      7  0.306233D-01  0.256873D-02  0.417690D-04  0.761389D-03  0.698586D-02
      8  0.297431D-02  0.121018D-01  0.543213D-02 -0.141873D-01  0.241809D-02
      9 -0.301030D-02  0.102956D-01 -0.125782D-01  0.822221D-02 -0.271015D-02
     10  0.359973D-04 -0.223973D-01  0.714606D-02  0.596507D-02  0.292057D-03
     11  0.333324D-02  0.153531D-01  0.317623D-02 -0.385536D-02  0.198970D-01
     12 -0.957951D-03  0.101729D-01 -0.244822D-02  0.398233D-02 -0.239373D-01
     13 -0.237529D-02 -0.255260D-01 -0.728007D-03 -0.126966D-03  0.404035D-02
     14  0.232675D-01  0.928529D-02  0.145717D-02 -0.553460D-03  0.114993D-01
     15  0.166527D-01 -0.319113D-02 -0.263025D-03 -0.101907D-02 -0.233858D-01
     16 -0.399202D-01 -0.609415D-02 -0.119414D-02  0.157253D-02  0.118866D-01
     17  0.000000D+00  0.000000D+00  0.000000D+00  0.000000D+00  0.000000D+00
     18  0.000000D+00  0.000000D+00  0.000000D+00  0.000000D+00  0.000000D+00
     19  0.000000D+00  0.000000D+00  0.000000D+00  0.000000D+00  0.000000D+00
     20  0.000000D+00  0.000000D+00  0.000000D+00  0.000000D+00  0.000000D+00
     21  0.000000D+00  0.000000D+00  0.000000D+00  0.000000D+00  0.000000D+00
     22  0.000000D+00  0.000000D+00  0.000000D+00  0.000000D+00  0.000000D+00
     23  0.000000D+00  0.000000D+00  0.000000D+00  0.000000D+00  0.000000D+00
     24  0.000000D+00  0.000000D+00  0.000000D+00  0.000000D+00  0.000000D+00
                6             7             8             9            10 
      6  0.343180D+00
      7  0.454889D-03  0.285567D+00
      8 -0.202194D-02  0.180435D-03  0.801862D-01
      9  0.238214D-02  0.131759D-02 -0.446059D-01  0.824815D-01
     10 -0.360202D-03 -0.149803D-02 -0.355804D-01 -0.378756D-01  0.734560D-01
     11 -0.133319D-01 -0.127636D-02  0.105861D-01 -0.924317D-02 -0.134297D-02
     12  0.551879D-02 -0.101002D-02 -0.895872D-02  0.102145D-01 -0.125582D-02
     13  0.781309D-02  0.228638D-02 -0.162743D-02 -0.971363D-03  0.259879D-02
     14 -0.538538D-02 -0.141556D-01  0.229823D-02  0.516048D-03 -0.281428D-02
     15  0.805728D-03  0.185993D-02 -0.144512D-02 -0.248192D-04  0.146994D-02
     16  0.457965D-02  0.122957D-01 -0.853107D-03 -0.491229D-03  0.134434D-02
     17  0.000000D+00  0.000000D+00  0.000000D+00  0.000000D+00  0.000000D+00
     18  0.000000D+00  0.000000D+00  0.000000D+00  0.000000D+00  0.000000D+00
     19  0.000000D+00  0.000000D+00  0.000000D+00  0.000000D+00  0.000000D+00
     20  0.000000D+00  0.000000D+00  0.000000D+00  0.000000D+00  0.000000D+00
     21  0.000000D+00  0.000000D+00  0.000000D+00  0.000000D+00  0.000000D+00
     22  0.000000D+00  0.000000D+00  0.000000D+00  0.000000D+00  0.000000D+00
     23  0.000000D+00  0.000000D+00  0.000000D+00  0.000000D+00  0.000000D+00
     24  0.000000D+00  0.000000D+00  0.000000D+00  0.000000D+00  0.000000D+00
               11            12            13            14            15 
     11  0.109647D+00
     12 -0.571769D-01  0.883541D-01
     13 -0.524699D-01 -0.311772D-01  0.836471D-01
     14  0.216918D-01 -0.526145D-03 -0.211656D-01  0.137064D+00
     15 -0.577143D-02  0.212726D-02  0.364418D-02 -0.760782D-01  0.117257D+00
     16 -0.159204D-01 -0.160111D-02  0.175215D-01 -0.609860D-01 -0.411784D-01
     17  0.000000D+00  0.000000D+00  0.000000D+00  0.000000D+00  0.000000D+00
     18  0.000000D+00  0.000000D+00  0.000000D+00  0.000000D+00  0.000000D+00
     19  0.000000D+00  0.000000D+00  0.000000D+00  0.000000D+00  0.000000D+00
     20  0.000000D+00  0.000000D+00  0.000000D+00  0.000000D+00  0.000000D+00
     21  0.000000D+00  0.000000D+00  0.000000D+00  0.000000D+00  0.000000D+00
     22  0.000000D+00  0.000000D+00  0.000000D+00  0.000000D+00  0.000000D+00
     23  0.000000D+00  0.000000D+00  0.000000D+00  0.000000D+00  0.000000D+00
     24  0.000000D+00  0.000000D+00  0.000000D+00  0.000000D+00  0.000000D+00
               16            17            18            19            20 
     16  0.102164D+00
     17  0.000000D+00  0.211564D-01
     18  0.000000D+00  0.141006D-01  0.190745D-01
     19  0.000000D+00 -0.208750D-03 -0.493378D-02  0.199505D-01
     20  0.000000D+00 -0.726447D-02  0.400679D-04  0.152255D-01  0.225301D-01
     21  0.000000D+00  0.180725D-03  0.419372D-02 -0.103868D-03  0.390913D-02
     22  0.000000D+00 -0.431279D-02  0.157109D-02 -0.278136D-02  0.310252D-02
     23  0.000000D+00  0.686577D-02 -0.518823D-03  0.437293D-02 -0.301166D-02
     24  0.000000D+00  0.237226D-02 -0.314145D-02  0.169544D-02 -0.381827D-02
               21            22            23            24 
     21  0.210469D-01
     22 -0.136461D-01  0.227916D-01
     23  0.172447D-01 -0.192208D-01  0.242414D-01
     24 -0.174482D-01  0.172168D-01 -0.122242D-01  0.224409D-01
 Leave Link  716 at Thu Mar 12 11:34:46 2015, MaxMem= 1048576000 cpu:       0.4
 (Enter /usr/soft/chemie/g09/l103.exe)

 GradGradGradGradGradGradGradGradGradGradGradGradGradGradGradGradGradGrad
 Berny optimization.
 Red2BG is reusing G-inverse.
 Internal  Forces:  Max     0.000073981 RMS     0.000025086
 Search for a local minimum.
 Step number   1 out of a maximum of    2
 All quantities printed in internal units (Hartrees-Bohrs-Radians)
 Second derivative matrix not updated -- analytic derivatives used.
 ITU=  0
     Eigenvalues ---    0.00793   0.02244   0.02872   0.04210   0.07203
     Eigenvalues ---    0.10366   0.10734   0.11418   0.13830   0.16330
     Eigenvalues ---    0.21345   0.28875   0.30532   0.34380   0.34581
     Eigenvalues ---    0.35080   0.58020   0.68988
 Angle between quadratic step and forces=  17.64 degrees.
 Linear search not attempted -- first point.
 Iteration  1 RMS(Cart)=  0.00058795 RMS(Int)=  0.00000015
 Iteration  2 RMS(Cart)=  0.00000017 RMS(Int)=  0.00000000
 Variable       Old X    -DE/DX   Delta X   Delta X   Delta X     New X
                                 (Linear)    (Quad)   (Total)
    R1        2.37241  -0.00002   0.00000  -0.00001  -0.00001   2.37240
    R2        2.55982  -0.00002   0.00000  -0.00006  -0.00006   2.55976
    R3        2.06399   0.00002   0.00000   0.00006   0.00006   2.06404
    R4        2.07047  -0.00001   0.00000  -0.00003  -0.00003   2.07044
    R5        2.79031   0.00002   0.00000   0.00003   0.00003   2.79034
    R6        2.06834   0.00001   0.00000   0.00006   0.00006   2.06840
    R7        2.11201  -0.00003   0.00000  -0.00013  -0.00013   2.11187
    A1        2.13711  -0.00003   0.00000  -0.00033  -0.00033   2.13678
    A2        2.11511   0.00004   0.00000   0.00038   0.00038   2.11549
    A3        2.03096   0.00000   0.00000  -0.00005  -0.00005   2.03091
    A4        2.12016   0.00007   0.00000   0.00055   0.00055   2.12072
    A5        2.12962  -0.00003   0.00000  -0.00018  -0.00018   2.12944
    A6        2.03340  -0.00004   0.00000  -0.00037  -0.00037   2.03303
    A7        2.16690  -0.00003   0.00000  -0.00025  -0.00025   2.16665
    A8        2.10891   0.00001   0.00000   0.00005   0.00005   2.10895
    A9        2.00737   0.00002   0.00000   0.00021   0.00021   2.00758
    D1        3.14159   0.00000   0.00000   0.00000   0.00000   3.14159
    D2        0.00000   0.00000   0.00000   0.00000   0.00000   0.00000
    D3        0.00000   0.00000   0.00000   0.00000   0.00000   0.00000
    D4        3.14159   0.00000   0.00000   0.00000   0.00000   3.14159
    D5        3.14159   0.00000   0.00000   0.00000   0.00000   3.14159
    D6        0.00000   0.00000   0.00000   0.00000   0.00000   0.00000
    D7        0.00000   0.00000   0.00000   0.00000   0.00000   0.00000
    D8        3.14159   0.00000   0.00000   0.00000   0.00000   3.14159
         Item               Value     Threshold  Converged?
 Maximum Force            0.000074     0.000450     YES
 RMS     Force            0.000025     0.000300     YES
 Maximum Displacement     0.001655     0.001800     YES
 RMS     Displacement     0.000588     0.001200     YES
 Predicted change in Energy=-5.463050D-08
 Optimization completed.
    -- Stationary point found.
                           ----------------------------
                           !   Optimized Parameters   !
                           ! (Angstroms and Degrees)  !
 --------------------------                            --------------------------
 ! Name  Definition              Value          Derivative Info.                !
 --------------------------------------------------------------------------------
 ! R1    R(1,4)                  1.2554         -DE/DX =    0.0                 !
 ! R2    R(2,3)                  1.3546         -DE/DX =    0.0                 !
 ! R3    R(2,7)                  1.0922         -DE/DX =    0.0                 !
 ! R4    R(2,8)                  1.0956         -DE/DX =    0.0                 !
 ! R5    R(3,4)                  1.4766         -DE/DX =    0.0                 !
 ! R6    R(3,6)                  1.0945         -DE/DX =    0.0                 !
 ! R7    R(4,5)                  1.1176         -DE/DX =    0.0                 !
 ! A1    A(3,2,7)              122.4474         -DE/DX =    0.0                 !
 ! A2    A(3,2,8)              121.187          -DE/DX =    0.0                 !
 ! A3    A(7,2,8)              116.3656         -DE/DX =    0.0                 !
 ! A4    A(2,3,4)              121.4765         -DE/DX =    0.0001              !
 ! A5    A(2,3,6)              122.0182         -DE/DX =    0.0                 !
 ! A6    A(4,3,6)              116.5053         -DE/DX =    0.0                 !
 ! A7    A(1,4,3)              124.1545         -DE/DX =    0.0                 !
 ! A8    A(1,4,5)              120.8316         -DE/DX =    0.0                 !
 ! A9    A(3,4,5)              115.0139         -DE/DX =    0.0                 !
 ! D1    D(7,2,3,4)            180.0            -DE/DX =    0.0                 !
 ! D2    D(7,2,3,6)              0.0            -DE/DX =    0.0                 !
 ! D3    D(8,2,3,4)              0.0            -DE/DX =    0.0                 !
 ! D4    D(8,2,3,6)            180.0            -DE/DX =    0.0                 !
 ! D5    D(2,3,4,1)            180.0            -DE/DX =    0.0                 !
 ! D6    D(2,3,4,5)              0.0            -DE/DX =    0.0                 !
 ! D7    D(6,3,4,1)              0.0            -DE/DX =    0.0                 !
 ! D8    D(6,3,4,5)            180.0            -DE/DX =    0.0                 !
 --------------------------------------------------------------------------------
 GradGradGradGradGradGradGradGradGradGradGradGradGradGradGradGradGradGrad

 Leave Link  103 at Thu Mar 12 11:34:46 2015, MaxMem= 1048576000 cpu:       0.0
 (Enter /usr/soft/chemie/g09/l9999.exe)

 Test job not archived.
 1\1\GINC-NODE89\Freq\RBLYP\6-31G\C3H4O1\OB070\12-Mar-2015\0\\#P Geom=A
 llCheck Guess=TCheck SCRF=Check Test GenChk RBLYP/6-31G Freq\\acrolein
  test BLYP opt S0\\0,1\O,-1.832489,-0.143725,0.\C,1.78337,0.147062,0.\
 C,0.564851,-0.444674,0.\C,-0.67879,0.351324,0.\H,-0.530831,1.459112,0.
 \H,0.448236,-1.532964,0.\H,2.713133,-0.426063,0.\H,1.884288,1.238048,0
 .\\Version=EM64L-G09RevC.01\HF=-191.7974412\RMSD=2.370e-09\RMSF=2.228e
 -05\ZeroPoint=0.0599843\Thermal=0.0643599\Dipole=1.3076006,0.2265432,0
 .\DipoleDeriv=-0.9127814,-0.090328,0.,-0.1056366,-0.4785685,0.,0.,0.,-
 0.3322126,0.189866,-0.0485817,0.,0.0697553,0.132923,0.,0.,0.,-0.238115
 6,-0.5200316,0.0876679,0.,0.1844976,0.0321541,0.,0.,0.,-0.0925489,1.16
 595,0.0654724,0.,-0.2570907,0.7588542,0.,0.,0.,0.1752287,0.0093161,-0.
 0733506,0.,0.0397215,-0.286914,0.,0.,0.,0.0646636,0.0345275,-0.0232523
 ,0.,0.0174025,-0.0867648,0.,0.,0.,0.1382352,-0.0339471,0.0595294,0.,0.
 0701158,0.0216396,0.,0.,0.,0.1385159,0.0671006,0.0228428,0.,-0.0187654
 ,-0.0933236,0.,0.,0.,0.1462337\Polar=57.028475,4.5027861,32.7750388,0.
 ,0.,12.4990825\PG=CS [SG(C3H4O1)]\NImag=0\\0.58358270,0.21663421,0.163
 99354,0.,0.,0.02069412,0.00666714,0.00791309,0.,0.77245308,0.01122272,
 0.00072453,0.,0.06127106,0.63967306,0.,0.,0.00283123,0.,0.,0.11462531,
 -0.07573760,0.00309118,0.,-0.41773815,-0.15144038,0.,0.69950413,-0.013
 87082,0.02444562,0.,-0.16237168,-0.19440533,0.,0.12559792,0.67430270,0
 .,0.,0.01884571,0.,0.,-0.04926524,0.,0.,0.11412866,-0.50189708,-0.1820
 0778,0.,-0.05205146,0.00487497,0.,-0.13244011,0.06139822,0.,0.73922350
 ,-0.18889455,-0.18067413,0.,-0.01442687,0.01466148,0.,0.07089071,-0.16
 527407,0.,0.11987898,0.60327856,0.,0.,-0.05543631,0.,0.,0.00299011,0.,
 0.,-0.07283635,0.,0.,0.17144521,-0.01423892,-0.04443648,0.,0.00142161,
 0.00133849,0.,0.00153289,0.02677471,0.,-0.05582818,-0.00819364,0.,0.07
 019083,-0.02380611,-0.01251682,0.,-0.00000986,0.00014087,0.,-0.0037504
 9,-0.01751230,0.,-0.00011915,-0.25376389,0.,0.02381689,0.28303625,0.,0
 .,0.01665074,0.,0.,-0.00146528,0.,0.,0.01480931,0.,0.,-0.05424683,0.,0
 .,0.02176361,0.00249332,-0.00352366,0.,-0.00094681,-0.03142236,0.,-0.0
 5634091,-0.02468292,0.,0.00325953,0.02934814,0.,-0.00358479,0.00203060
 ,0.,0.05782666,0.00060631,0.00360815,0.,0.00238311,-0.00800803,0.,-0.0
 2637897,-0.32005429,0.,-0.00689583,-0.01646735,0.,0.00210479,-0.000908
 72,0.,0.02947120,0.34014090,0.,0.,-0.00193415,0.,0.,0.00505841,0.,0.,-
 0.03997586,0.,0.,0.00332679,0.,0.,0.00299978,0.,0.,0.02649097,-0.00177
 039,0.00084260,0.,-0.25105976,0.12287734,0.,-0.01924458,0.01871872,0.,
 -0.00054156,-0.00492284,0.,0.00034485,0.00041984,0.,0.00110422,-0.0004
 0075,0.,0.26712351,-0.00119948,0.00058939,0.,0.12760337,-0.13485892,0.
 ,-0.01706746,0.01084056,0.,-0.00091040,-0.00241394,0.,-0.00027826,0.00
 072310,0.,0.00038222,0.00108457,0.,-0.13296792,0.13524390,0.,0.,-0.003
 13382,0.,0.,-0.03790664,0.,0.,0.00865146,0.,0.,0.01364979,0.,0.,-0.001
 05296,0.,0.,-0.00676149,0.,0.,0.02254476,0.00090081,0.00148683,0.,-0.0
 5874564,-0.01872185,0.,0.00046432,-0.03156416,0.,0.00027535,-0.0036799
 2,0.,0.00016171,0.00141829,0.,-0.00381121,-0.00088987,0.,0.00404371,0.
 02443794,0.,0.05671095,-0.00069228,-0.00017026,0.,-0.02236222,-0.31792
 766,0.,-0.00094252,-0.01234289,0.,0.00378099,0.00065334,0.,-0.00112650
 ,0.00080150,0.,-0.00160322,0.00060476,0.,-0.00456698,-0.01120866,0.,0.
 02751273,0.33958987,0.,0.,0.00148250,0.,0.,-0.03686790,0.,0.,0.0056423
 1,0.,0.,-0.00889242,0.,0.,0.00054164,0.,0.,0.01079554,0.,0.,0.00400889
 ,0.,0.,0.02328944\\-0.00002575,0.00000795,0.,0.00004118,-0.00000732,0.
 ,-0.00005033,-0.00004449,0.,0.00004463,-0.00002744,0.,0.00000869,0.000
 03184,0.,0.00000758,0.00001207,0.,-0.00000558,0.00001956,0.,-0.0000204
 2,0.00000783,0.\\\@


 LIFE CAN ONLY BE UNDERSTOOD BACKWARD, BUT MUST
 BE LIVED FORWARD. -- KIRKEGAARD
 Job cpu time:  0 days  0 hours  0 minutes 39.2 seconds.
 File lengths (MBytes):  RWF=      5 Int=      0 D2E=      0 Chk=      1 Scr=      1
 Normal termination of Gaussian 09 at Thu Mar 12 11:34:46 2015.
