 Entering Gaussian System, Link 0=g09
 Input=t1-opt-freq.inp
 Output=t1-opt-freq.log
 Initial command:
 /usr/soft/chemie/g09/l1.exe /tmp/Gau-27841.inp -scrdir=/tmp/
 Entering Link 1 = /usr/soft/chemie/g09/l1.exe PID=     27842.
  
 Copyright (c) 1988,1990,1992,1993,1995,1998,2003,2009,2011,
            Gaussian, Inc.  All Rights Reserved.
  
 This is part of the Gaussian(R) 09 program.  It is based on
 the Gaussian(R) 03 system (copyright 2003, Gaussian, Inc.),
 the Gaussian(R) 98 system (copyright 1998, Gaussian, Inc.),
 the Gaussian(R) 94 system (copyright 1995, Gaussian, Inc.),
 the Gaussian 92(TM) system (copyright 1992, Gaussian, Inc.),
 the Gaussian 90(TM) system (copyright 1990, Gaussian, Inc.),
 the Gaussian 88(TM) system (copyright 1988, Gaussian, Inc.),
 the Gaussian 86(TM) system (copyright 1986, Carnegie Mellon
 University), and the Gaussian 82(TM) system (copyright 1983,
 Carnegie Mellon University). Gaussian is a federally registered
 trademark of Gaussian, Inc.
  
 This software contains proprietary and confidential information,
 including trade secrets, belonging to Gaussian, Inc.
  
 This software is provided under written license and may be
 used, copied, transmitted, or stored only in accord with that
 written license.
  
 The following legend is applicable only to US Government
 contracts under FAR:
  
                    RESTRICTED RIGHTS LEGEND
  
 Use, reproduction and disclosure by the US Government is
 subject to restrictions as set forth in subparagraphs (a)
 and (c) of the Commercial Computer Software - Restricted
 Rights clause in FAR 52.227-19.
  
 Gaussian, Inc.
 340 Quinnipiac St., Bldg. 40, Wallingford CT 06492
  
  
 ---------------------------------------------------------------
 Warning -- This program may not be used in any manner that
 competes with the business of Gaussian, Inc. or will provide
 assistance to any competitor of Gaussian, Inc.  The licensee
 of this program is prohibited from giving any competitor of
 Gaussian, Inc. access to this program.  By using this program,
 the user acknowledges that Gaussian, Inc. is engaged in the
 business of creating and licensing software in the field of
 computational chemistry and represents and warrants to the
 licensee that it is not a competitor of Gaussian, Inc. and that
 it will not use this program in any manner prohibited above.
 ---------------------------------------------------------------
  

 Cite this work as:
 Gaussian 09, Revision C.01,
 M. J. Frisch, G. W. Trucks, H. B. Schlegel, G. E. Scuseria, 
 M. A. Robb, J. R. Cheeseman, G. Scalmani, V. Barone, B. Mennucci, 
 G. A. Petersson, H. Nakatsuji, M. Caricato, X. Li, H. P. Hratchian, 
 A. F. Izmaylov, J. Bloino, G. Zheng, J. L. Sonnenberg, M. Hada, 
 M. Ehara, K. Toyota, R. Fukuda, J. Hasegawa, M. Ishida, T. Nakajima, 
 Y. Honda, O. Kitao, H. Nakai, T. Vreven, J. A. Montgomery, Jr., 
 J. E. Peralta, F. Ogliaro, M. Bearpark, J. J. Heyd, E. Brothers, 
 K. N. Kudin, V. N. Staroverov, T. Keith, R. Kobayashi, J. Normand, 
 K. Raghavachari, A. Rendell, J. C. Burant, S. S. Iyengar, J. Tomasi, 
 M. Cossi, N. Rega, J. M. Millam, M. Klene, J. E. Knox, J. B. Cross, 
 V. Bakken, C. Adamo, J. Jaramillo, R. Gomperts, R. E. Stratmann, 
 O. Yazyev, A. J. Austin, R. Cammi, C. Pomelli, J. W. Ochterski, 
 R. L. Martin, K. Morokuma, V. G. Zakrzewski, G. A. Voth, 
 P. Salvador, J. J. Dannenberg, S. Dapprich, A. D. Daniels, 
 O. Farkas, J. B. Foresman, J. V. Ortiz, J. Cioslowski, 
 and D. J. Fox, Gaussian, Inc., Wallingford CT, 2010.
 
 ******************************************
 Gaussian 09:  EM64L-G09RevC.01 23-Sep-2011
                12-Mar-2015 
 ******************************************
 %nprocs=8
 Will use up to    8 processors via shared memory.
 %mem=1000MW
 %chk=t1-opt-freq.chk
 -----------------------------------------------------------------
 #P UBLYP/6-31G Opt Freq(SaveNM) Nosym Gfinput IOP(6/7=3) Pop=full
 -----------------------------------------------------------------
 1/14=-1,18=20,19=15,26=3,38=1/1,3;
 2/9=110,12=2,15=1,17=6,18=5,40=1/2;
 3/5=1,6=6,11=2,16=1,24=10,25=1,30=1,71=1,74=402,116=2/1,2,3;
 4//1;
 5/5=2,38=5/2;
 6/7=3,28=1/1;
 7/30=1,92=1/1,2,3,16;
 1/14=-1,18=20,19=15/3(2);
 2/9=110,15=1/2;
 99//99;
 2/9=110,15=1/2;
 3/5=1,6=6,11=2,16=1,25=1,30=1,71=1,74=402,116=2/1,2,3;
 4/5=5,16=3/1;
 5/5=2,38=5/2;
 7/30=1,92=1/1,2,3,16;
 1/14=-1,18=20,19=15/3(-5);
 2/9=110,15=1/2;
 6/7=3,19=2,28=1/1;
 99/9=1/99;
 Leave Link    1 at Thu Mar 12 11:38:25 2015, MaxMem= 1048576000 cpu:       0.4
 (Enter /usr/soft/chemie/g09/l101.exe)
 -------------------------
 acrolein test BLYP opt S0
 -------------------------
 Charge =  0 Multiplicity = 3
 Symbolic Z-Matrix:
 8                    -1.90024  -0.16732   0.00003 
 6                     1.83046   0.16006   0.00001 
 6                     0.55689  -0.40116  -0.00002 
 6                    -0.64636   0.33915  -0.00005 
 1                    -0.6465    1.4437    0.00001 
 1                     0.45008  -1.49096   0. 
 1                     2.7163   -0.47622   0.00001 
 1                     1.99113   1.24087   0. 
 
 NAtoms=      8 NQM=        0 NQMF=       0 NMMI=      8 NMMIF=      0
                NMic=       0 NMicF=      0.
                    Isotopes and Nuclear Properties:
 (Nuclear quadrupole moments (NQMom) in fm**2, nuclear magnetic moments (NMagM)
  in nuclear magnetons)

  Atom         1           2           3           4           5           6           7           8
 IAtWgt=          16          12          12          12           1           1           1           1
 AtmWgt=  15.9949146  12.0000000  12.0000000  12.0000000   1.0078250   1.0078250   1.0078250   1.0078250
 NucSpn=           0           0           0           0           1           1           1           1
 AtZEff=   0.0000000   0.0000000   0.0000000   0.0000000   0.0000000   0.0000000   0.0000000   0.0000000
 NQMom=    0.0000000   0.0000000   0.0000000   0.0000000   0.0000000   0.0000000   0.0000000   0.0000000
 NMagM=    0.0000000   0.0000000   0.0000000   0.0000000   2.7928460   2.7928460   2.7928460   2.7928460
 Leave Link  101 at Thu Mar 12 11:38:26 2015, MaxMem= 1048576000 cpu:       2.7
 (Enter /usr/soft/chemie/g09/l103.exe)

 GradGradGradGradGradGradGradGradGradGradGradGradGradGradGradGradGradGrad
 Berny optimization.
 Initialization pass.
                           ----------------------------
                           !    Initial Parameters    !
                           ! (Angstroms and Degrees)  !
 --------------------------                            --------------------------
 ! Name  Definition              Value          Derivative Info.                !
 --------------------------------------------------------------------------------
 ! R1    R(1,4)                  1.3523         estimate D2E/DX2                !
 ! R2    R(2,3)                  1.3917         estimate D2E/DX2                !
 ! R3    R(2,7)                  1.0907         estimate D2E/DX2                !
 ! R4    R(2,8)                  1.0927         estimate D2E/DX2                !
 ! R5    R(3,4)                  1.4128         estimate D2E/DX2                !
 ! R6    R(3,6)                  1.095          estimate D2E/DX2                !
 ! R7    R(4,5)                  1.1045         estimate D2E/DX2                !
 ! A1    A(3,2,7)              120.5296         estimate D2E/DX2                !
 ! A2    A(3,2,8)              122.2368         estimate D2E/DX2                !
 ! A3    A(7,2,8)              117.2336         estimate D2E/DX2                !
 ! A4    A(2,3,4)              124.6167         estimate D2E/DX2                !
 ! A5    A(2,3,6)              119.3788         estimate D2E/DX2                !
 ! A6    A(4,3,6)              116.0045         estimate D2E/DX2                !
 ! A7    A(1,4,3)              126.4033         estimate D2E/DX2                !
 ! A8    A(1,4,5)              111.9877         estimate D2E/DX2                !
 ! A9    A(3,4,5)              121.609          estimate D2E/DX2                !
 ! D1    D(7,2,3,4)           -179.999          estimate D2E/DX2                !
 ! D2    D(7,2,3,6)              0.0022         estimate D2E/DX2                !
 ! D3    D(8,2,3,4)             -0.0001         estimate D2E/DX2                !
 ! D4    D(8,2,3,6)           -179.9988         estimate D2E/DX2                !
 ! D5    D(2,3,4,1)           -179.9942         estimate D2E/DX2                !
 ! D6    D(2,3,4,5)             -0.0041         estimate D2E/DX2                !
 ! D7    D(6,3,4,1)              0.0046         estimate D2E/DX2                !
 ! D8    D(6,3,4,5)            179.9947         estimate D2E/DX2                !
 --------------------------------------------------------------------------------
 Trust Radius=3.00D-01 FncErr=1.00D-07 GrdErr=1.00D-06
 Number of steps in this run=     34 maximum allowed number of steps=    100.
 GradGradGradGradGradGradGradGradGradGradGradGradGradGradGradGradGradGrad

 Leave Link  103 at Thu Mar 12 11:38:26 2015, MaxMem= 1048576000 cpu:       0.1
 (Enter /usr/soft/chemie/g09/l202.exe)
                          Input orientation:                          
 ---------------------------------------------------------------------
 Center     Atomic      Atomic             Coordinates (Angstroms)
 Number     Number       Type             X           Y           Z
 ---------------------------------------------------------------------
      1          8           0       -1.900235   -0.167316    0.000034
      2          6           0        1.830464    0.160063    0.000006
      3          6           0        0.556890   -0.401155   -0.000020
      4          6           0       -0.646364    0.339148   -0.000050
      5          1           0       -0.646501    1.443697    0.000013
      6          1           0        0.450083   -1.490964    0.000003
      7          1           0        2.716299   -0.476218    0.000012
      8          1           0        1.991132    1.240866    0.000004
 ---------------------------------------------------------------------
                    Distance matrix (angstroms):
                    1          2          3          4          5
     1  O    0.000000
     2  C    3.745036   0.000000
     3  C    2.468227   1.391746   0.000000
     4  C    1.352294   2.483294   1.412752   0.000000
     5  H    2.041375   2.789816   2.202641   1.104549   0.000000
     6  H    2.697413   2.152055   1.095030   2.133426   3.132847
     7  H    4.626857   1.090668   2.160713   3.460105   3.872273
     8  H    4.138323   1.092680   2.180203   2.787379   2.645420
                    6          7          8
     6  H    0.000000
     7  H    2.483031   0.000000
     8  H    3.136515   1.863933   0.000000
 Symmetry turned off by external request.
 Stoichiometry    C3H4O(3)
 Framework group  C1[X(C3H4O)]
 Deg. of freedom    18
 Full point group                 C1      NOp   1
 Rotational constants (GHZ):     50.0120921      4.2688116      3.9330996
 Leave Link  202 at Thu Mar 12 11:38:26 2015, MaxMem= 1048576000 cpu:       0.0
 (Enter /usr/soft/chemie/g09/l301.exe)
 Standard basis: 6-31G (6D, 7F)
 Ernie: Thresh=  0.10000D-02 Tol=  0.10000D-05 Strict=F.
 AO basis set in the form of general basis input (Overlap normalization):
      1 0
 S   6 1.00       0.000000000000
      0.5484671660D+04  0.1831074430D-02
      0.8252349460D+03  0.1395017220D-01
      0.1880469580D+03  0.6844507810D-01
      0.5296450000D+02  0.2327143360D+00
      0.1689757040D+02  0.4701928980D+00
      0.5799635340D+01  0.3585208530D+00
 SP   3 1.00       0.000000000000
      0.1553961625D+02 -0.1107775495D+00  0.7087426823D-01
      0.3599933586D+01 -0.1480262627D+00  0.3397528391D+00
      0.1013761750D+01  0.1130767015D+01  0.7271585773D+00
 SP   1 1.00       0.000000000000
      0.2700058226D+00  0.1000000000D+01  0.1000000000D+01
 ****
      2 0
 S   6 1.00       0.000000000000
      0.3047524880D+04  0.1834737132D-02
      0.4573695180D+03  0.1403732281D-01
      0.1039486850D+03  0.6884262226D-01
      0.2921015530D+02  0.2321844432D+00
      0.9286662960D+01  0.4679413484D+00
      0.3163926960D+01  0.3623119853D+00
 SP   3 1.00       0.000000000000
      0.7868272350D+01 -0.1193324198D+00  0.6899906659D-01
      0.1881288540D+01 -0.1608541517D+00  0.3164239610D+00
      0.5442492580D+00  0.1143456438D+01  0.7443082909D+00
 SP   1 1.00       0.000000000000
      0.1687144782D+00  0.1000000000D+01  0.1000000000D+01
 ****
      3 0
 S   6 1.00       0.000000000000
      0.3047524880D+04  0.1834737132D-02
      0.4573695180D+03  0.1403732281D-01
      0.1039486850D+03  0.6884262226D-01
      0.2921015530D+02  0.2321844432D+00
      0.9286662960D+01  0.4679413484D+00
      0.3163926960D+01  0.3623119853D+00
 SP   3 1.00       0.000000000000
      0.7868272350D+01 -0.1193324198D+00  0.6899906659D-01
      0.1881288540D+01 -0.1608541517D+00  0.3164239610D+00
      0.5442492580D+00  0.1143456438D+01  0.7443082909D+00
 SP   1 1.00       0.000000000000
      0.1687144782D+00  0.1000000000D+01  0.1000000000D+01
 ****
      4 0
 S   6 1.00       0.000000000000
      0.3047524880D+04  0.1834737132D-02
      0.4573695180D+03  0.1403732281D-01
      0.1039486850D+03  0.6884262226D-01
      0.2921015530D+02  0.2321844432D+00
      0.9286662960D+01  0.4679413484D+00
      0.3163926960D+01  0.3623119853D+00
 SP   3 1.00       0.000000000000
      0.7868272350D+01 -0.1193324198D+00  0.6899906659D-01
      0.1881288540D+01 -0.1608541517D+00  0.3164239610D+00
      0.5442492580D+00  0.1143456438D+01  0.7443082909D+00
 SP   1 1.00       0.000000000000
      0.1687144782D+00  0.1000000000D+01  0.1000000000D+01
 ****
      5 0
 S   3 1.00       0.000000000000
      0.1873113696D+02  0.3349460434D-01
      0.2825394365D+01  0.2347269535D+00
      0.6401216923D+00  0.8137573261D+00
 S   1 1.00       0.000000000000
      0.1612777588D+00  0.1000000000D+01
 ****
      6 0
 S   3 1.00       0.000000000000
      0.1873113696D+02  0.3349460434D-01
      0.2825394365D+01  0.2347269535D+00
      0.6401216923D+00  0.8137573261D+00
 S   1 1.00       0.000000000000
      0.1612777588D+00  0.1000000000D+01
 ****
      7 0
 S   3 1.00       0.000000000000
      0.1873113696D+02  0.3349460434D-01
      0.2825394365D+01  0.2347269535D+00
      0.6401216923D+00  0.8137573261D+00
 S   1 1.00       0.000000000000
      0.1612777588D+00  0.1000000000D+01
 ****
      8 0
 S   3 1.00       0.000000000000
      0.1873113696D+02  0.3349460434D-01
      0.2825394365D+01  0.2347269535D+00
      0.6401216923D+00  0.8137573261D+00
 S   1 1.00       0.000000000000
      0.1612777588D+00  0.1000000000D+01
 ****

 Integral buffers will be    131072 words long.
 Raffenetti 2 integral format.
 Two-electron integral symmetry is turned off.
    44 basis functions,   104 primitive gaussians,    44 cartesian basis functions
    16 alpha electrons       14 beta electrons
       nuclear repulsion energy        99.5699495957 Hartrees.
 IExCor=  402 DFT=T Ex=B Corr=LYP ExCW=0 ScaHFX=  0.000000
 ScaDFX=  1.000000  1.000000  1.000000  1.000000 ScalE2=  1.000000  1.000000
 IRadAn=      0 IRanWt=     -1 IRanGd=            0 ICorTp=0
 NAtoms=    8 NActive=    8 NUniq=    8 SFac= 1.00D+00 NAtFMM=   60 NAOKFM=F Big=F
 Leave Link  301 at Thu Mar 12 11:38:26 2015, MaxMem= 1048576000 cpu:       0.5
 (Enter /usr/soft/chemie/g09/l302.exe)
 NPDir=0 NMtPBC=     1 NCelOv=     1 NCel=       1 NClECP=     1 NCelD=      1
         NCelK=      1 NCelE2=     1 NClLst=     1 CellRange=     0.0.
 One-electron integrals computed using PRISM.
 NBasis=    44 RedAO= T  NBF=    44
 NBsUse=    44 1.00D-06 NBFU=    44
 Precomputing XC quadrature grid using
 IXCGrd= 2 IRadAn=           0 IRanWt=          -1 IRanGd=           0 AccXCQ= 0.00D+00.
 NRdTot=     493 NPtTot=       62520 NUsed=       66088 NTot=       66120
 NSgBfM=    44    44    44    44    44 NAtAll=     8     8.
 Leave Link  302 at Thu Mar 12 11:38:26 2015, MaxMem= 1048576000 cpu:       1.3
 (Enter /usr/soft/chemie/g09/l303.exe)
 DipDrv:  MaxL=1.
 Leave Link  303 at Thu Mar 12 11:38:26 2015, MaxMem= 1048576000 cpu:       0.3
 (Enter /usr/soft/chemie/g09/l401.exe)
 Harris functional with IExCor=  402 diagonalized for initial guess.
 ExpMin= 1.61D-01 ExpMax= 5.48D+03 ExpMxC= 8.25D+02 IAcc=1 IRadAn=         1 AccDes= 0.00D+00
 HarFok:  IExCor=  402 AccDes= 0.00D+00 IRadAn=         1 IDoV= 1
 ScaDFX=  1.000000  1.000000  1.000000  1.000000
 FoFCou: FMM=F IPFlag=           0 FMFlag=      100000 FMFlg1=           0
         NFxFlg=           0 DoJE=T BraDBF=F KetDBF=T FulRan=T
         Omega=  0.000000  0.000000  1.000000  0.000000  0.000000 ICntrl=     500 IOpCl=  0
         NMat0=    1 NMatS0=    1 NMatT0=    0 NMatD0=    1 NMtDS0=    0 NMtDT0=    0
         I1Cent=           4 NGrid=           0.
 Symmetry not used in FoFCou.
 Harris En= -191.731138170479    
 Initial guess <Sx>= 0.0000 <Sy>= 0.0000 <Sz>= 1.0000 <S**2>= 2.0000 S= 1.0000
 Leave Link  401 at Thu Mar 12 11:38:26 2015, MaxMem= 1048576000 cpu:       1.5
 (Enter /usr/soft/chemie/g09/l502.exe)
 UHF open shell SCF:
 Requested convergence on RMS density matrix=1.00D-08 within 128 cycles.
 Requested convergence on MAX density matrix=1.00D-06.
 Requested convergence on             energy=1.00D-06.
 No special actions if energy rises.
 Using DIIS extrapolation, IDIIS=  1040.
 Two-electron integral symmetry not used.
        66003 words used for storage of precomputed grid.
 Keep J ints in memory in canonical form, NReq=1444734.
 IEnd=       90589 IEndB=       90589 NGot=  1048576000 MDV=  1048013459
 LenX=  1048013459 LenY=  1048011082
 Symmetry not used in FoFDir.
 MinBra= 0 MaxBra= 1 Meth= 1.
 IRaf=       0 NMat=   1 IRICut=       1 DoRegI=T DoRafI=F ISym2E= 0 JSym2E=0.
 Integral accuracy reduced to 1.0D-05 until final iterations.

 Cycle   1  Pass 0  IDiag  1:
 E= -191.598110350055    
 DIIS: error= 5.46D-02 at cycle   1 NSaved=   1.
 NSaved= 1 IEnMin= 1 EnMin= -191.598110350055     IErMin= 1 ErrMin= 5.46D-02
 ErrMax= 5.46D-02 EMaxC= 1.00D-01 BMatC= 3.24D-01 BMatP= 3.24D-01
 IDIUse=3 WtCom= 4.54D-01 WtEn= 5.46D-01
 Coeff-Com:  0.100D+01
 Coeff-En:   0.100D+01
 Coeff:      0.100D+01
 Gap=     0.128 Goal=   None    Shift=    0.000
 Gap=    -0.128 Goal=   None    Shift=    0.000
 GapD=   -0.128 DampG=0.250 DampE=0.500 DampFc=0.2500 IDamp=-1.
 Damping current iteration by 2.50D-01
 RMSDP=2.63D-02 MaxDP=3.59D-01              OVMax= 8.66D-01

 Cycle   2  Pass 0  IDiag  1:
 E= -191.637581318331     Delta-E=       -0.039470968276 Rises=F Damp=T
 DIIS: error= 2.10D-02 at cycle   2 NSaved=   2.
 NSaved= 2 IEnMin= 2 EnMin= -191.637581318331     IErMin= 2 ErrMin= 2.10D-02
 ErrMax= 2.10D-02 EMaxC= 1.00D-01 BMatC= 4.86D-02 BMatP= 3.24D-01
 IDIUse=3 WtCom= 7.90D-01 WtEn= 2.10D-01
 Coeff-Com: -0.444D-01 0.104D+01
 Coeff-En:   0.189D+00 0.811D+00
 Coeff:      0.461D-02 0.995D+00
 Gap=     0.235 Goal=   None    Shift=    0.000
 Gap=     0.158 Goal=   None    Shift=    0.000
 RMSDP=8.19D-03 MaxDP=1.12D-01 DE=-3.95D-02 OVMax= 8.71D-01

 Cycle   3  Pass 0  IDiag  1:
 E= -191.637810347813     Delta-E=       -0.000229029482 Rises=F Damp=F
 DIIS: error= 5.06D-02 at cycle   3 NSaved=   3.
 NSaved= 3 IEnMin= 3 EnMin= -191.637810347813     IErMin= 2 ErrMin= 2.10D-02
 ErrMax= 5.06D-02 EMaxC= 1.00D-01 BMatC= 2.67D-01 BMatP= 4.86D-02
 IDIUse=2 WtCom= 0.00D+00 WtEn= 1.00D+00
 Coeff-En:   0.000D+00 0.499D+00 0.501D+00
 Coeff:      0.000D+00 0.499D+00 0.501D+00
 Gap=     0.161 Goal=   None    Shift=    0.000
 Gap=    -0.031 Goal=   None    Shift=    0.000
 RMSDP=1.79D-02 MaxDP=3.94D-01 DE=-2.29D-04 OVMax= 9.38D-01

 Cycle   4  Pass 0  IDiag  1:
 E= -191.380917995858     Delta-E=        0.256892351955 Rises=F Damp=F
 DIIS: error= 9.01D-02 at cycle   4 NSaved=   4.
 NSaved= 4 IEnMin= 3 EnMin= -191.637810347813     IErMin= 2 ErrMin= 2.10D-02
 ErrMax= 9.01D-02 EMaxC= 1.00D-01 BMatC= 1.07D+00 BMatP= 4.86D-02
 IDIUse=2 WtCom= 0.00D+00 WtEn= 1.00D+00
 EnCoef did     3 forward-backward iterations
 Coeff-En:   0.143D+00 0.000D+00 0.602D+00 0.255D+00
 Coeff:      0.143D+00 0.000D+00 0.602D+00 0.255D+00
 Gap=     0.139 Goal=   None    Shift=    0.000
 Gap=    -0.009 Goal=   None    Shift=    0.000
 RMSDP=1.66D-02 MaxDP=3.67D-01 DE= 2.57D-01 OVMax= 9.70D-01

 Cycle   5  Pass 0  IDiag  1:
 E= -191.690770484252     Delta-E=       -0.309852488395 Rises=F Damp=F
 DIIS: error= 1.74D-02 at cycle   5 NSaved=   5.
 NSaved= 5 IEnMin= 5 EnMin= -191.690770484252     IErMin= 5 ErrMin= 1.74D-02
 ErrMax= 1.74D-02 EMaxC= 1.00D-01 BMatC= 3.10D-02 BMatP= 4.86D-02
 IDIUse=3 WtCom= 8.26D-01 WtEn= 1.74D-01
 EnCoef did     6 forward-backward iterations
 Coeff-Com: -0.252D+00 0.544D+00 0.216D+00-0.232D-01 0.515D+00
 Coeff-En:   0.000D+00 0.000D+00 0.128D+00 0.782D-01 0.794D+00
 Coeff:     -0.208D+00 0.449D+00 0.201D+00-0.552D-02 0.564D+00
 Gap=     0.144 Goal=   None    Shift=    0.000
 Gap=     0.002 Goal=   None    Shift=    0.000
 RMSDP=3.12D-03 MaxDP=4.70D-02 DE=-3.10D-01 OVMax= 8.74D-02

 Cycle   6  Pass 0  IDiag  1:
 E= -191.699006934670     Delta-E=       -0.008236450418 Rises=F Damp=F
 DIIS: error= 8.05D-03 at cycle   6 NSaved=   6.
 NSaved= 6 IEnMin= 6 EnMin= -191.699006934670     IErMin= 6 ErrMin= 8.05D-03
 ErrMax= 8.05D-03 EMaxC= 1.00D-01 BMatC= 7.44D-03 BMatP= 3.10D-02
 IDIUse=3 WtCom= 9.19D-01 WtEn= 8.05D-02
 EnCoef did     2 forward-backward iterations
 Coeff-Com: -0.138D+00 0.184D+00 0.394D-01-0.963D-02 0.417D+00 0.507D+00
 Coeff-En:   0.000D+00 0.000D+00 0.000D+00 0.602D-02 0.135D+00 0.859D+00
 Coeff:     -0.127D+00 0.169D+00 0.362D-01-0.837D-02 0.395D+00 0.536D+00
 Gap=     0.145 Goal=   None    Shift=    0.000
 Gap=     0.004 Goal=   None    Shift=    0.000
 RMSDP=9.72D-04 MaxDP=1.10D-02 DE=-8.24D-03 OVMax= 2.36D-02

 Cycle   7  Pass 0  IDiag  1:
 E= -191.700828921045     Delta-E=       -0.001821986374 Rises=F Damp=F
 DIIS: error= 1.74D-03 at cycle   7 NSaved=   7.
 NSaved= 7 IEnMin= 7 EnMin= -191.700828921045     IErMin= 7 ErrMin= 1.74D-03
 ErrMax= 1.74D-03 EMaxC= 1.00D-01 BMatC= 1.25D-04 BMatP= 7.44D-03
 IDIUse=3 WtCom= 9.83D-01 WtEn= 1.74D-02
 Coeff-Com:  0.116D-01-0.339D-01-0.241D-01 0.418D-02 0.142D-02 0.154D+00
 Coeff-Com:  0.887D+00
 Coeff-En:   0.000D+00 0.000D+00 0.000D+00 0.000D+00 0.000D+00 0.000D+00
 Coeff-En:   0.100D+01
 Coeff:      0.114D-01-0.334D-01-0.237D-01 0.411D-02 0.140D-02 0.151D+00
 Coeff:      0.889D+00
 Gap=     0.148 Goal=   None    Shift=    0.000
 Gap=     0.007 Goal=   None    Shift=    0.000
 RMSDP=2.79D-04 MaxDP=4.58D-03 DE=-1.82D-03 OVMax= 8.59D-03

 Cycle   8  Pass 0  IDiag  1:
 E= -191.700875478533     Delta-E=       -0.000046557489 Rises=F Damp=F
 DIIS: error= 6.59D-04 at cycle   8 NSaved=   8.
 NSaved= 8 IEnMin= 8 EnMin= -191.700875478533     IErMin= 8 ErrMin= 6.59D-04
 ErrMax= 6.59D-04 EMaxC= 1.00D-01 BMatC= 3.98D-05 BMatP= 1.25D-04
 IDIUse=3 WtCom= 9.93D-01 WtEn= 6.59D-03
 Coeff-Com:  0.209D-02 0.773D-04-0.585D-02 0.298D-04-0.182D-01 0.318D-01
 Coeff-Com:  0.387D+00 0.603D+00
 Coeff-En:   0.000D+00 0.000D+00 0.000D+00 0.000D+00 0.000D+00 0.000D+00
 Coeff-En:   0.000D+00 0.100D+01
 Coeff:      0.208D-02 0.768D-04-0.581D-02 0.296D-04-0.181D-01 0.316D-01
 Coeff:      0.385D+00 0.606D+00
 Gap=     0.147 Goal=   None    Shift=    0.000
 Gap=     0.007 Goal=   None    Shift=    0.000
 RMSDP=1.41D-04 MaxDP=1.60D-03 DE=-4.66D-05 OVMax= 4.11D-03

 Cycle   9  Pass 0  IDiag  1:
 E= -191.700887364951     Delta-E=       -0.000011886418 Rises=F Damp=F
 DIIS: error= 4.00D-04 at cycle   9 NSaved=   9.
 NSaved= 9 IEnMin= 9 EnMin= -191.700887364951     IErMin= 9 ErrMin= 4.00D-04
 ErrMax= 4.00D-04 EMaxC= 1.00D-01 BMatC= 1.47D-05 BMatP= 3.98D-05
 IDIUse=3 WtCom= 9.96D-01 WtEn= 4.00D-03
 Coeff-Com:  0.366D-02-0.704D-02-0.176D-02 0.542D-03-0.161D-01-0.248D-01
 Coeff-Com: -0.415D-01 0.387D+00 0.700D+00
 Coeff-En:   0.000D+00 0.000D+00 0.000D+00 0.000D+00 0.000D+00 0.000D+00
 Coeff-En:   0.000D+00 0.217D+00 0.783D+00
 Coeff:      0.365D-02-0.701D-02-0.175D-02 0.540D-03-0.161D-01-0.247D-01
 Coeff:     -0.413D-01 0.386D+00 0.700D+00
 Gap=     0.148 Goal=   None    Shift=    0.000
 Gap=     0.007 Goal=   None    Shift=    0.000
 RMSDP=6.57D-05 MaxDP=1.09D-03 DE=-1.19D-05 OVMax= 2.06D-03

 Cycle  10  Pass 0  IDiag  1:
 E= -191.700892410475     Delta-E=       -0.000005045523 Rises=F Damp=F
 DIIS: error= 7.18D-05 at cycle  10 NSaved=  10.
 NSaved=10 IEnMin=10 EnMin= -191.700892410475     IErMin=10 ErrMin= 7.18D-05
 ErrMax= 7.18D-05 EMaxC= 1.00D-01 BMatC= 6.51D-07 BMatP= 1.47D-05
 IDIUse=1 WtCom= 1.00D+00 WtEn= 0.00D+00
 Coeff-Com: -0.963D-03 0.203D-02 0.230D-02-0.209D-03 0.323D-02-0.543D-02
 Coeff-Com: -0.495D-01 0.177D-01 0.967D-01 0.934D+00
 Coeff:     -0.963D-03 0.203D-02 0.230D-02-0.209D-03 0.323D-02-0.543D-02
 Coeff:     -0.495D-01 0.177D-01 0.967D-01 0.934D+00
 Gap=     0.148 Goal=   None    Shift=    0.000
 Gap=     0.007 Goal=   None    Shift=    0.000
 RMSDP=1.70D-05 MaxDP=1.35D-04 DE=-5.05D-06 OVMax= 3.34D-04

 Cycle  11  Pass 0  IDiag  1:
 E= -191.700892643037     Delta-E=       -0.000000232562 Rises=F Damp=F
 DIIS: error= 1.19D-05 at cycle  11 NSaved=  11.
 NSaved=11 IEnMin=11 EnMin= -191.700892643037     IErMin=11 ErrMin= 1.19D-05
 ErrMax= 1.19D-05 EMaxC= 1.00D-01 BMatC= 2.36D-08 BMatP= 6.51D-07
 IDIUse=1 WtCom= 1.00D+00 WtEn= 0.00D+00
 Coeff-Com:  0.661D-04 0.605D-04 0.299D-03 0.568D-05 0.864D-03 0.100D-02
 Coeff-Com: -0.191D-02-0.224D-01-0.505D-01 0.121D+00 0.951D+00
 Coeff:      0.661D-04 0.605D-04 0.299D-03 0.568D-05 0.864D-03 0.100D-02
 Coeff:     -0.191D-02-0.224D-01-0.505D-01 0.121D+00 0.951D+00
 Gap=     0.148 Goal=   None    Shift=    0.000
 Gap=     0.007 Goal=   None    Shift=    0.000
 RMSDP=5.87D-06 MaxDP=6.06D-05 DE=-2.33D-07 OVMax= 2.37D-04

 Initial convergence to 1.0D-05 achieved.  Increase integral accuracy.
 Cycle  12  Pass 1  IDiag  1:
 E= -191.700904116808     Delta-E=       -0.000011473771 Rises=F Damp=F
 DIIS: error= 7.67D-06 at cycle   1 NSaved=   1.
 NSaved= 1 IEnMin= 1 EnMin= -191.700904116808     IErMin= 1 ErrMin= 7.67D-06
 ErrMax= 7.67D-06 EMaxC= 1.00D-01 BMatC= 1.13D-08 BMatP= 1.13D-08
 IDIUse=1 WtCom= 1.00D+00 WtEn= 0.00D+00
 Coeff-Com:  0.100D+01
 Coeff:      0.100D+01
 Gap=     0.148 Goal=   None    Shift=    0.000
 Gap=     0.007 Goal=   None    Shift=    0.000
 RMSDP=5.87D-06 MaxDP=6.06D-05 DE=-1.15D-05 OVMax= 2.61D-04

 Cycle  13  Pass 1  IDiag  1:
 E= -191.700904109269     Delta-E=        0.000000007539 Rises=F Damp=F
 DIIS: error= 2.33D-05 at cycle   2 NSaved=   2.
 NSaved= 2 IEnMin= 1 EnMin= -191.700904116808     IErMin= 1 ErrMin= 7.67D-06
 ErrMax= 2.33D-05 EMaxC= 1.00D-01 BMatC= 4.26D-08 BMatP= 1.13D-08
 IDIUse=1 WtCom= 1.00D+00 WtEn= 0.00D+00
 Coeff-Com:  0.696D+00 0.304D+00
 Coeff:      0.696D+00 0.304D+00
 Gap=     0.148 Goal=   None    Shift=    0.000
 Gap=     0.007 Goal=   None    Shift=    0.000
 RMSDP=3.55D-06 MaxDP=3.53D-05 DE= 7.54D-09 OVMax= 1.21D-04

 Cycle  14  Pass 1  IDiag  1:
 E= -191.700904121957     Delta-E=       -0.000000012688 Rises=F Damp=F
 DIIS: error= 5.63D-06 at cycle   3 NSaved=   3.
 NSaved= 3 IEnMin= 3 EnMin= -191.700904121957     IErMin= 3 ErrMin= 5.63D-06
 ErrMax= 5.63D-06 EMaxC= 1.00D-01 BMatC= 2.99D-09 BMatP= 1.13D-08
 IDIUse=1 WtCom= 1.00D+00 WtEn= 0.00D+00
 Coeff-Com:  0.411D-01 0.206D+00 0.753D+00
 Coeff:      0.411D-01 0.206D+00 0.753D+00
 Gap=     0.148 Goal=   None    Shift=    0.000
 Gap=     0.007 Goal=   None    Shift=    0.000
 RMSDP=3.65D-06 MaxDP=5.04D-05 DE=-1.27D-08 OVMax= 2.20D-04

 Cycle  15  Pass 1  IDiag  1:
 E= -191.700904123593     Delta-E=       -0.000000001636 Rises=F Damp=F
 DIIS: error= 1.61D-06 at cycle   4 NSaved=   4.
 NSaved= 4 IEnMin= 4 EnMin= -191.700904123593     IErMin= 4 ErrMin= 1.61D-06
 ErrMax= 1.61D-06 EMaxC= 1.00D-01 BMatC= 3.68D-10 BMatP= 2.99D-09
 IDIUse=1 WtCom= 1.00D+00 WtEn= 0.00D+00
 Coeff-Com:  0.143D-01 0.138D+00 0.497D+00 0.351D+00
 Coeff:      0.143D-01 0.138D+00 0.497D+00 0.351D+00
 Gap=     0.148 Goal=   None    Shift=    0.000
 Gap=     0.007 Goal=   None    Shift=    0.000
 RMSDP=1.57D-06 MaxDP=2.17D-05 DE=-1.64D-09 OVMax= 9.44D-05

 Cycle  16  Pass 1  IDiag  1:
 E= -191.700904124089     Delta-E=       -0.000000000496 Rises=F Damp=F
 DIIS: error= 1.26D-06 at cycle   5 NSaved=   5.
 NSaved= 5 IEnMin= 5 EnMin= -191.700904124089     IErMin= 5 ErrMin= 1.26D-06
 ErrMax= 1.26D-06 EMaxC= 1.00D-01 BMatC= 1.41D-10 BMatP= 3.68D-10
 IDIUse=1 WtCom= 1.00D+00 WtEn= 0.00D+00
 Coeff-Com:  0.287D-02 0.603D-01 0.198D+00 0.233D+00 0.506D+00
 Coeff:      0.287D-02 0.603D-01 0.198D+00 0.233D+00 0.506D+00
 Gap=     0.148 Goal=   None    Shift=    0.000
 Gap=     0.007 Goal=   None    Shift=    0.000
 RMSDP=2.45D-06 MaxDP=3.42D-05 DE=-4.96D-10 OVMax= 1.49D-04

 Cycle  17  Pass 1  IDiag  1:
 E= -191.700904124769     Delta-E=       -0.000000000681 Rises=F Damp=F
 DIIS: error= 1.29D-06 at cycle   6 NSaved=   6.
 NSaved= 6 IEnMin= 6 EnMin= -191.700904124769     IErMin= 5 ErrMin= 1.26D-06
 ErrMax= 1.29D-06 EMaxC= 1.00D-01 BMatC= 1.28D-10 BMatP= 1.41D-10
 IDIUse=1 WtCom= 1.00D+00 WtEn= 0.00D+00
 Coeff-Com:  0.244D-02 0.134D+00 0.404D+00 0.608D+00 0.171D+01-0.185D+01
 Coeff:      0.244D-02 0.134D+00 0.404D+00 0.608D+00 0.171D+01-0.185D+01
 Gap=     0.148 Goal=   None    Shift=    0.000
 Gap=     0.007 Goal=   None    Shift=    0.000
 RMSDP=6.97D-06 MaxDP=9.73D-05 DE=-6.81D-10 OVMax= 4.24D-04

 Cycle  18  Pass 1  IDiag  1:
 E= -191.700904122893     Delta-E=        0.000000001877 Rises=F Damp=F
 DIIS: error= 1.19D-06 at cycle   7 NSaved=   7.
 NSaved= 7 IEnMin= 6 EnMin= -191.700904124769     IErMin= 7 ErrMin= 1.19D-06
 ErrMax= 1.19D-06 EMaxC= 1.00D-01 BMatC= 1.17D-10 BMatP= 1.28D-10
 IDIUse=1 WtCom= 1.00D+00 WtEn= 0.00D+00
 Coeff-Com: -0.146D-01 0.199D+00 0.532D+00 0.136D+01 0.456D+01-0.951D+01
 Coeff-Com:  0.388D+01
 Coeff:     -0.146D-01 0.199D+00 0.532D+00 0.136D+01 0.456D+01-0.951D+01
 Coeff:      0.388D+01
 Gap=     0.148 Goal=   None    Shift=    0.000
 Gap=     0.007 Goal=   None    Shift=    0.000
 RMSDP=4.02D-05 MaxDP=5.62D-04 DE= 1.88D-09 OVMax= 2.45D-03

 Cycle  19  Pass 1  IDiag  1:
 E= -191.700904114972     Delta-E=        0.000000007921 Rises=F Damp=F
 DIIS: error= 9.56D-07 at cycle   8 NSaved=   8.
 NSaved= 8 IEnMin= 6 EnMin= -191.700904124769     IErMin= 8 ErrMin= 9.56D-07
 ErrMax= 9.56D-07 EMaxC= 1.00D-01 BMatC= 9.08D-11 BMatP= 1.17D-10
 IDIUse=1 WtCom= 1.00D+00 WtEn= 0.00D+00
 Coeff-Com: -0.728D-02-0.698D-01-0.822D-01 0.104D+00 0.752D+00-0.309D+01
 Coeff-Com:  0.191D+01 0.149D+01
 Coeff:     -0.728D-02-0.698D-01-0.822D-01 0.104D+00 0.752D+00-0.309D+01
 Coeff:      0.191D+01 0.149D+01
 Gap=     0.148 Goal=   None    Shift=    0.000
 Gap=     0.007 Goal=   None    Shift=    0.000
 RMSDP=3.71D-05 MaxDP=5.18D-04 DE= 7.92D-09 OVMax= 2.25D-03

 Cycle  20  Pass 1  IDiag  1:
 E= -191.700904112091     Delta-E=        0.000000002881 Rises=F Damp=F
 DIIS: error= 7.62D-07 at cycle   9 NSaved=   9.
 NSaved= 9 IEnMin= 6 EnMin= -191.700904124769     IErMin= 9 ErrMin= 7.62D-07
 ErrMax= 7.62D-07 EMaxC= 1.00D-01 BMatC= 6.37D-11 BMatP= 9.08D-11
 IDIUse=1 WtCom= 1.00D+00 WtEn= 0.00D+00
 Coeff-Com: -0.242D-02-0.815D-01-0.111D+00-0.130D+00 0.100D+00-0.102D+01
 Coeff-Com:  0.798D+00 0.102D+01 0.428D+00
 Coeff:     -0.242D-02-0.815D-01-0.111D+00-0.130D+00 0.100D+00-0.102D+01
 Coeff:      0.798D+00 0.102D+01 0.428D+00
 Gap=     0.148 Goal=   None    Shift=    0.000
 Gap=     0.007 Goal=   None    Shift=    0.000
 RMSDP=3.59D-06 MaxDP=5.02D-05 DE= 2.88D-09 OVMax= 2.18D-04

 Cycle  21  Pass 1  IDiag  1:
 E= -191.700904112051     Delta-E=        0.000000000040 Rises=F Damp=F
 DIIS: error= 4.27D-07 at cycle  10 NSaved=  10.
 NSaved=10 IEnMin= 6 EnMin= -191.700904124769     IErMin=10 ErrMin= 4.27D-07
 ErrMax= 4.27D-07 EMaxC= 1.00D-01 BMatC= 1.52D-11 BMatP= 6.37D-11
 IDIUse=1 WtCom= 1.00D+00 WtEn= 0.00D+00
 Coeff-Com:  0.423D-03-0.195D-01-0.146D-02-0.130D+00-0.328D-02 0.396D+00
 Coeff-Com: -0.276D+00-0.704D-01 0.963D-01 0.101D+01
 Coeff:      0.423D-03-0.195D-01-0.146D-02-0.130D+00-0.328D-02 0.396D+00
 Coeff:     -0.276D+00-0.704D-01 0.963D-01 0.101D+01
 Gap=     0.148 Goal=   None    Shift=    0.000
 Gap=     0.007 Goal=   None    Shift=    0.000
 RMSDP=2.82D-06 MaxDP=3.93D-05 DE= 3.98D-11 OVMax= 1.71D-04

 Cycle  22  Pass 1  IDiag  1:
 E= -191.700904112040     Delta-E=        0.000000000011 Rises=F Damp=F
 DIIS: error= 3.47D-08 at cycle  11 NSaved=  11.
 NSaved=11 IEnMin= 6 EnMin= -191.700904124769     IErMin=11 ErrMin= 3.47D-08
 ErrMax= 3.47D-08 EMaxC= 1.00D-01 BMatC= 1.80D-13 BMatP= 1.52D-11
 IDIUse=1 WtCom= 1.00D+00 WtEn= 0.00D+00
 Coeff-Com: -0.186D-04-0.187D-04 0.420D-03-0.841D-02 0.139D-01 0.161D-01
 Coeff-Com: -0.150D-01-0.370D-01 0.154D-01 0.137D+00 0.877D+00
 Coeff:     -0.186D-04-0.187D-04 0.420D-03-0.841D-02 0.139D-01 0.161D-01
 Coeff:     -0.150D-01-0.370D-01 0.154D-01 0.137D+00 0.877D+00
 Gap=     0.148 Goal=   None    Shift=    0.000
 Gap=     0.007 Goal=   None    Shift=    0.000
 RMSDP=3.83D-07 MaxDP=5.35D-06 DE= 1.09D-11 OVMax= 2.33D-05

 Cycle  23  Pass 1  IDiag  1:
 E= -191.700904112040     Delta-E=        0.000000000001 Rises=F Damp=F
 DIIS: error= 1.12D-08 at cycle  12 NSaved=  12.
 NSaved=12 IEnMin= 6 EnMin= -191.700904124769     IErMin=12 ErrMin= 1.12D-08
 ErrMax= 1.12D-08 EMaxC= 1.00D-01 BMatC= 1.04D-14 BMatP= 1.80D-13
 IDIUse=1 WtCom= 1.00D+00 WtEn= 0.00D+00
 Coeff-Com: -0.302D-04 0.127D-02 0.350D-03 0.894D-02 0.495D-02-0.376D-01
 Coeff-Com:  0.247D-01 0.295D-02-0.899D-02-0.456D-01 0.177D+00 0.873D+00
 Coeff:     -0.302D-04 0.127D-02 0.350D-03 0.894D-02 0.495D-02-0.376D-01
 Coeff:      0.247D-01 0.295D-02-0.899D-02-0.456D-01 0.177D+00 0.873D+00
 Gap=     0.148 Goal=   None    Shift=    0.000
 Gap=     0.007 Goal=   None    Shift=    0.000
 RMSDP=1.30D-08 MaxDP=1.76D-07 DE= 6.25D-13 OVMax= 7.67D-07

 Cycle  24  Pass 1  IDiag  1:
 E= -191.700904112039     Delta-E=        0.000000000000 Rises=F Damp=F
 DIIS: error= 3.79D-09 at cycle  13 NSaved=  13.
 NSaved=13 IEnMin= 6 EnMin= -191.700904124769     IErMin=13 ErrMin= 3.79D-09
 ErrMax= 3.79D-09 EMaxC= 1.00D-01 BMatC= 2.17D-15 BMatP= 1.04D-14
 IDIUse=1 WtCom= 1.00D+00 WtEn= 0.00D+00
 Coeff-Com: -0.172D-04 0.579D-04 0.110D-03 0.775D-03 0.354D-02-0.114D-01
 Coeff-Com:  0.647D-02 0.419D-02-0.345D-02-0.141D-01-0.312D-01 0.680D-01
 Coeff-Com:  0.977D+00
 Coeff:     -0.172D-04 0.579D-04 0.110D-03 0.775D-03 0.354D-02-0.114D-01
 Coeff:      0.647D-02 0.419D-02-0.345D-02-0.141D-01-0.312D-01 0.680D-01
 Coeff:      0.977D+00
 Gap=     0.148 Goal=   None    Shift=    0.000
 Gap=     0.007 Goal=   None    Shift=    0.000
 RMSDP=1.20D-09 MaxDP=1.13D-08 DE= 4.55D-13 OVMax= 4.94D-08

 SCF Done:  E(UB-LYP) =  -191.700904112     A.U. after   24 cycles
             Convg  =    0.1203D-08             -V/T =  2.0059
 <Sx>= 0.0000 <Sy>= 0.0000 <Sz>= 1.0000 <S**2>= 2.0121 S= 1.0040
 <L.S>= 0.000000000000E+00
 KE= 1.905793308570D+02 PE=-6.467077564194D+02 EE= 1.648575718547D+02
 Annihilation of the first spin contaminant:
 S**2 before annihilation     2.0121,   after     2.0000
 Leave Link  502 at Thu Mar 12 11:38:28 2015, MaxMem= 1048576000 cpu:      12.1
 (Enter /usr/soft/chemie/g09/l601.exe)
 Copying SCF densities to generalized density rwf, IOpCl= 1 IROHF=0.

 **********************************************************************

            Population analysis using the SCF density.

 **********************************************************************

 Alpha  occ. eigenvalues --  -18.88656  -9.98988  -9.94221  -9.92036  -0.97563
 Alpha  occ. eigenvalues --   -0.70945  -0.59128  -0.52005  -0.42863  -0.42762
 Alpha  occ. eigenvalues --   -0.36480  -0.36076  -0.33897  -0.30455  -0.25101
 Alpha  occ. eigenvalues --   -0.12939
 Alpha virt. eigenvalues --    0.01861   0.08077   0.08621   0.11931   0.16282
 Alpha virt. eigenvalues --    0.17180   0.27353   0.33577   0.47435   0.49608
 Alpha virt. eigenvalues --    0.52246   0.54768   0.55436   0.60062   0.60608
 Alpha virt. eigenvalues --    0.63434   0.77551   0.80722   0.81859   0.86402
 Alpha virt. eigenvalues --    0.87040   0.89683   0.95473   0.96543   1.07962
 Alpha virt. eigenvalues --    1.13049   1.26510   1.58732
  Beta  occ. eigenvalues --  -18.86290  -9.98339  -9.94278  -9.91338  -0.92698
  Beta  occ. eigenvalues --   -0.69772  -0.56851  -0.50407  -0.41211  -0.40640
  Beta  occ. eigenvalues --   -0.35239  -0.32574  -0.32492  -0.22888
  Beta virt. eigenvalues --   -0.22208  -0.08186   0.04047   0.08594   0.09783
  Beta virt. eigenvalues --    0.12702   0.17140   0.18656   0.28058   0.34344
  Beta virt. eigenvalues --    0.49786   0.50440   0.53387   0.56738   0.58082
  Beta virt. eigenvalues --    0.61028   0.61530   0.64209   0.78608   0.81604
  Beta virt. eigenvalues --    0.83304   0.87158   0.89766   0.90282   0.97448
  Beta virt. eigenvalues --    1.01476   1.09087   1.14288   1.27002   1.62570
     Alpha Molecular Orbital Coefficients:
                           1         2         3         4         5
                           O         O         O         O         O
     Eigenvalues --   -18.88656  -9.98988  -9.94221  -9.92036  -0.97563
   1 1   O  1S          0.99492   0.00008   0.00000  -0.00002  -0.20581
   2        2S          0.03081  -0.00006  -0.00006  -0.00035   0.46701
   3        2PX         0.00200  -0.00060  -0.00002  -0.00005   0.14603
   4        2PY         0.00081  -0.00014  -0.00006   0.00002   0.05907
   5        2PZ         0.00000   0.00000   0.00000   0.00000  -0.00001
   6        3S         -0.02076  -0.00017  -0.00015   0.00124   0.47120
   7        3PX        -0.00619  -0.00107  -0.00047   0.00057   0.07838
   8        3PY        -0.00222  -0.00116   0.00036   0.00000   0.02788
   9        3PZ         0.00000   0.00000   0.00000   0.00000   0.00000
  10 2   C  1S         -0.00002  -0.00018   0.00634   0.99487  -0.00183
  11        2S         -0.00037  -0.00053  -0.00203   0.03751   0.00609
  12        2PX         0.00040   0.00040   0.00110  -0.00021  -0.00527
  13        2PY        -0.00010  -0.00005   0.00042  -0.00006   0.00029
  14        2PZ         0.00000   0.00000   0.00000   0.00000   0.00000
  15        3S         -0.00224   0.00004   0.01168  -0.02980   0.01867
  16        3PX        -0.00047  -0.00087  -0.00576   0.00271   0.00459
  17        3PY         0.00121  -0.00019  -0.00003   0.00115  -0.01716
  18        3PZ         0.00000   0.00000   0.00000   0.00000   0.00000
  19 3   C  1S          0.00003   0.00212   0.99502  -0.00649  -0.01551
  20        2S          0.00009  -0.00214   0.03810  -0.00254   0.02893
  21        2PX         0.00005   0.00115  -0.00033  -0.00135  -0.02244
  22        2PY        -0.00022  -0.00081   0.00050  -0.00061   0.00730
  23        2PZ         0.00000   0.00000   0.00000   0.00000   0.00000
  24        3S         -0.00103   0.01035  -0.03659   0.01059   0.02296
  25        3PX         0.00352  -0.00484   0.00085   0.00476  -0.03616
  26        3PY         0.00306   0.00433  -0.00592   0.00188  -0.00726
  27        3PZ         0.00000   0.00000   0.00000   0.00000   0.00000
  28 4   C  1S          0.00006   0.99483  -0.00225   0.00012  -0.09213
  29        2S         -0.00038   0.03690  -0.00246  -0.00046   0.18714
  30        2PX        -0.00008  -0.00064  -0.00103  -0.00014  -0.13241
  31        2PY         0.00020  -0.00020   0.00071   0.00001  -0.05544
  32        2PZ         0.00000   0.00000   0.00000   0.00000   0.00001
  33        3S          0.00965  -0.02607   0.01343  -0.00001   0.00801
  34        3PX        -0.00743  -0.00583   0.00583   0.00084   0.03382
  35        3PY        -0.00585   0.00056  -0.00268   0.00046   0.04243
  36        3PZ         0.00000   0.00000   0.00000   0.00000   0.00000
  37 5   H  1S         -0.00006  -0.00125  -0.00044  -0.00012   0.02665
  38        2S          0.00152   0.00527  -0.00022  -0.00025  -0.01043
  39 6   H  1S          0.00039  -0.00020  -0.00123  -0.00032   0.00424
  40        2S          0.00172   0.00120   0.00384   0.00011  -0.00202
  41 7   H  1S          0.00017   0.00003  -0.00012  -0.00122  -0.00119
  42        2S          0.00091   0.00079   0.00075   0.00530  -0.00992
  43 8   H  1S         -0.00022  -0.00010  -0.00055  -0.00120   0.00252
  44        2S         -0.00002   0.00021  -0.00098   0.00532   0.00480
                           6         7         8         9        10
                           O         O         O         O         O
     Eigenvalues --    -0.70945  -0.59128  -0.52005  -0.42863  -0.42762
   1 1   O  1S          0.04720  -0.06580   0.03326   0.03092   0.06240
   2        2S         -0.11258   0.15431  -0.07728  -0.07028  -0.13414
   3        2PX         0.02131  -0.09248   0.02678   0.28683   0.32581
   4        2PY        -0.00933  -0.03367   0.19209  -0.20044   0.20364
   5        2PZ        -0.00001   0.00001   0.00012  -0.00042   0.00009
   6        3S         -0.12291   0.21278  -0.11085  -0.10239  -0.25300
   7        3PX         0.00678  -0.03446   0.00899   0.15528   0.15552
   8        3PY        -0.00212  -0.00959   0.09489  -0.11151   0.10162
   9        3PZ         0.00000   0.00000   0.00006  -0.00024   0.00005
  10 2   C  1S         -0.11753  -0.14617  -0.06448  -0.03438  -0.00733
  11        2S          0.22925   0.29334   0.13022   0.06991   0.01837
  12        2PX        -0.08737   0.02037   0.06850   0.18070   0.13419
  13        2PY        -0.02960  -0.02247   0.08034   0.18724  -0.16782
  14        2PZ         0.00000   0.00001   0.00001  -0.00002   0.00001
  15        3S          0.18289   0.25966   0.11969   0.11499   0.00860
  16        3PX        -0.02303   0.01715   0.02005   0.04466   0.06119
  17        3PY         0.00848  -0.01173   0.02499   0.06781  -0.07277
  18        3PZ         0.00000   0.00000   0.00000  -0.00001   0.00001
  19 3   C  1S         -0.16321   0.01427   0.09230   0.05323   0.00701
  20        2S          0.32958  -0.03209  -0.19182  -0.10599  -0.01732
  21        2PX         0.00444   0.22852   0.07388  -0.20855   0.05744
  22        2PY         0.06447  -0.02958   0.14132   0.09111  -0.25984
  23        2PZ        -0.00004   0.00003   0.00004  -0.00006   0.00005
  24        3S          0.17763  -0.02233  -0.15563  -0.18338   0.01328
  25        3PX         0.00134   0.03175   0.02164  -0.04949   0.01851
  26        3PY        -0.02714   0.00549   0.04497  -0.00306  -0.07332
  27        3PZ        -0.00001   0.00001   0.00001  -0.00002   0.00002
  28 4   C  1S         -0.08919   0.12811  -0.06634  -0.03375  -0.01625
  29        2S          0.18112  -0.27391   0.14641   0.07888   0.05296
  30        2PX         0.14027  -0.08634  -0.09574   0.00567  -0.29715
  31        2PY        -0.02740  -0.01470   0.26931  -0.27107  -0.03604
  32        2PZ        -0.00001   0.00001   0.00005  -0.00017   0.00007
  33        3S          0.15775  -0.24652   0.13339   0.09224   0.02386
  34        3PX         0.03978  -0.01428  -0.02277   0.06402  -0.08273
  35        3PY        -0.00231  -0.00847   0.10100  -0.11223  -0.00329
  36        3PZ        -0.00001   0.00001   0.00003  -0.00010   0.00004
  37 5   H  1S          0.05340  -0.11840   0.19864  -0.12036  -0.00320
  38        2S          0.01113  -0.03897   0.09983  -0.08328  -0.01569
  39 6   H  1S          0.08316  -0.00754  -0.14952  -0.09735   0.13120
  40        2S          0.00613   0.00682  -0.07917  -0.06765   0.09275
  41 7   H  1S          0.05616   0.11938   0.06024   0.05934   0.11656
  42        2S          0.01694   0.03818   0.02817   0.03681   0.07110
  43 8   H  1S          0.05789   0.10264   0.09624   0.14685  -0.06696
  44        2S          0.00666   0.03607   0.05154   0.08924  -0.04297
                          11        12        13        14        15
                           O         O         O         O         O
     Eigenvalues --    -0.36480  -0.36076  -0.33897  -0.30455  -0.25101
   1 1   O  1S         -0.02247  -0.00002   0.00122  -0.00185   0.00000
   2        2S          0.04848   0.00005  -0.00158   0.00820   0.00001
   3        2PX        -0.28245  -0.00061  -0.12691  -0.16214  -0.00024
   4        2PY        -0.13336   0.00079   0.32651   0.46931   0.00052
   5        2PZ        -0.00061   0.51976  -0.00090  -0.00012  -0.31812
   6        3S          0.04655   0.00003  -0.01922  -0.00555  -0.00002
   7        3PX        -0.17355  -0.00037  -0.07922  -0.10498  -0.00017
   8        3PY        -0.08373   0.00046   0.19168   0.29839   0.00034
   9        3PZ        -0.00036   0.31045  -0.00054  -0.00006  -0.22616
  10 2   C  1S          0.00916   0.00002   0.01056  -0.00140   0.00000
  11        2S         -0.02413  -0.00005  -0.02286   0.00791   0.00000
  12        2PX         0.37149   0.00066   0.02816   0.08194   0.00005
  13        2PY        -0.05668   0.00066   0.34714  -0.12316  -0.00002
  14        2PZ        -0.00008   0.05822  -0.00019  -0.00028   0.34419
  15        3S         -0.05716  -0.00009  -0.04090  -0.03415  -0.00004
  16        3PX         0.13032   0.00025   0.02284   0.06335   0.00004
  17        3PY        -0.01009   0.00022   0.10469  -0.03298   0.00001
  18        3PZ        -0.00004   0.03032  -0.00010  -0.00016   0.23287
  19 3   C  1S          0.02234  -0.00002  -0.01773  -0.02019  -0.00003
  20        2S         -0.05071   0.00002   0.02781   0.04116   0.00006
  21        2PX        -0.24594  -0.00090  -0.13328  -0.16166  -0.00019
  22        2PY        -0.16746  -0.00033  -0.20554   0.20423   0.00011
  23        2PZ        -0.00018   0.14004  -0.00040  -0.00048   0.37471
  24        3S         -0.03626   0.00026   0.15388   0.18139   0.00018
  25        3PX        -0.02672  -0.00031  -0.08679  -0.04840  -0.00006
  26        3PY        -0.02449   0.00000  -0.01258   0.09981   0.00007
  27        3PZ        -0.00008   0.05866  -0.00019  -0.00026   0.24016
  28 4   C  1S         -0.01902   0.00000   0.02420  -0.01379  -0.00001
  29        2S          0.02977   0.00000  -0.04892   0.04507   0.00005
  30        2PX         0.19028   0.00036  -0.05051   0.12554   0.00012
  31        2PY         0.10677  -0.00035  -0.01475  -0.22232  -0.00017
  32        2PZ        -0.00041   0.33131  -0.00077  -0.00056   0.13500
  33        3S          0.10030  -0.00011  -0.14572   0.00889   0.00003
  34        3PX        -0.00843  -0.00011  -0.09224  -0.02492  -0.00006
  35        3PY        -0.02621  -0.00007   0.03665  -0.01058   0.00002
  36        3PZ        -0.00024   0.19877  -0.00048  -0.00035   0.07478
  37 5   H  1S          0.11761  -0.00024  -0.04168  -0.19425  -0.00017
  38        2S          0.12298  -0.00019  -0.02666  -0.23381  -0.00023
  39 6   H  1S          0.09748   0.00030   0.17809  -0.13185  -0.00004
  40        2S          0.10732   0.00026   0.16049  -0.15607  -0.00008
  41 7   H  1S          0.20119   0.00008  -0.13632   0.10940   0.00005
  42        2S          0.17833   0.00007  -0.12337   0.10072   0.00006
  43 8   H  1S         -0.00755   0.00045   0.22543  -0.09188  -0.00003
  44        2S          0.00180   0.00039   0.21695  -0.10498  -0.00004
                          16        17        18        19        20
                           O         V         V         V         V
     Eigenvalues --    -0.12939   0.01861   0.08077   0.08621   0.11931
   1 1   O  1S          0.00000   0.00001  -0.02269   0.02912  -0.00098
   2        2S          0.00000  -0.00002   0.04681  -0.06454   0.00139
   3        2PX        -0.00006  -0.00004   0.09784  -0.14831  -0.04386
   4        2PY         0.00014  -0.00002   0.01938  -0.10597  -0.06093
   5        2PZ        -0.31761   0.15841  -0.00002   0.00000   0.00000
   6        3S          0.00000  -0.00003   0.29133  -0.34562   0.06269
   7        3PX        -0.00005  -0.00003   0.18370  -0.20439  -0.01452
   8        3PY         0.00011  -0.00003   0.00150  -0.19958  -0.04148
   9        3PZ        -0.26093   0.17188  -0.00003   0.00001   0.00000
  10 2   C  1S          0.00000  -0.00001   0.03955  -0.09170   0.09223
  11        2S         -0.00001   0.00001  -0.07394   0.15327  -0.14366
  12        2PX         0.00003  -0.00002  -0.06535   0.13317   0.00384
  13        2PY         0.00001  -0.00001   0.13717   0.06588  -0.20857
  14        2PZ        -0.41069  -0.29503   0.00004   0.00002   0.00001
  15        3S         -0.00004   0.00011  -0.53718   1.32771  -1.34545
  16        3PX         0.00003  -0.00006  -0.21002   0.44414   0.06724
  17        3PY         0.00002  -0.00002   0.29039   0.15083  -0.42363
  18        3PZ        -0.37791  -0.46524   0.00005   0.00004   0.00002
  19 3   C  1S         -0.00002   0.00003   0.05389   0.00932  -0.03693
  20        2S          0.00004  -0.00004  -0.07976  -0.03897   0.06764
  21        2PX        -0.00006   0.00005   0.05818   0.03796   0.13144
  22        2PY         0.00003   0.00000   0.21916  -0.10871  -0.17897
  23        2PZ         0.06996   0.49894  -0.00006  -0.00004  -0.00001
  24        3S          0.00016  -0.00046  -0.88747   0.32120   0.44928
  25        3PX        -0.00003   0.00008   0.27051  -0.14675   0.46443
  26        3PY         0.00005  -0.00005   0.35644  -0.21992  -0.57791
  27        3PZ         0.07255   0.68237  -0.00009  -0.00009   0.00000
  28 4   C  1S          0.00001  -0.00004  -0.03496  -0.09358  -0.07088
  29        2S          0.00001   0.00006   0.04671   0.16880   0.12576
  30        2PX         0.00004   0.00002   0.10024  -0.09704   0.00406
  31        2PY        -0.00003  -0.00001   0.28555   0.18833   0.13399
  32        2PZ         0.44213  -0.36854   0.00004   0.00005   0.00002
  33        3S         -0.00008   0.00045   0.69848   1.12457   1.15917
  34        3PX        -0.00005   0.00011   0.39362  -0.35140   0.36763
  35        3PY         0.00007  -0.00004   0.50816   0.56844   0.35511
  36        3PZ         0.34961  -0.47429   0.00006   0.00010   0.00005
  37 5   H  1S         -0.00004  -0.00003  -0.10058  -0.04590  -0.07729
  38        2S         -0.00009  -0.00017  -1.11266  -1.25749  -0.96843
  39 6   H  1S          0.00000   0.00003   0.12995   0.00016  -0.06010
  40        2S         -0.00001   0.00015   1.16883  -0.27869  -0.92187
  41 7   H  1S          0.00001  -0.00001   0.05885  -0.09543  -0.01481
  42        2S          0.00002  -0.00002   0.75598  -1.00069   0.11926
  43 8   H  1S         -0.00001   0.00000  -0.01335  -0.01583   0.13067
  44        2S         -0.00002  -0.00001  -0.17376  -0.85613   1.38241
                          21        22        23        24        25
                           V         V         V         V         V
     Eigenvalues --     0.16282   0.17180   0.27353   0.33577   0.47435
   1 1   O  1S         -0.07140   0.05316   0.02082   0.00799   0.00000
   2        2S          0.17075  -0.11479  -0.00099   0.01546   0.00004
   3        2PX         0.27800  -0.17854   0.10655  -0.06907   0.00009
   4        2PY         0.02978  -0.12040  -0.09301   0.01622  -0.00009
   5        2PZ         0.00000   0.00002   0.00001  -0.00001  -0.07710
   6        3S          0.91037  -0.73652  -0.74193  -0.22550  -0.00020
   7        3PX         0.55525  -0.40047  -0.16794  -0.26791  -0.00007
   8        3PY         0.14826  -0.21878  -0.23471   0.19328   0.00001
   9        3PZ         0.00000   0.00004   0.00008  -0.00002  -0.08271
  10 2   C  1S          0.01838   0.03810   0.07314   0.03657  -0.00001
  11        2S         -0.05288  -0.03651  -0.01030   0.01261   0.00004
  12        2PX         0.14551  -0.28076   0.08332   0.08837   0.00002
  13        2PY         0.19572   0.27587  -0.04283   0.21215   0.00012
  14        2PZ        -0.00001  -0.00001  -0.00001  -0.00001  -0.57891
  15        3S          0.05300  -0.72074  -2.15112  -2.03983  -0.00009
  16        3PX         0.21483  -0.56626   2.16649   1.53909  -0.00032
  17        3PY         0.84559   0.93469  -0.00619   1.47176  -0.00036
  18        3PZ        -0.00006  -0.00001   0.00002   0.00006   0.56871
  19 3   C  1S         -0.10346  -0.03871  -0.11747   0.02555   0.00000
  20        2S          0.20257   0.02990   0.10879  -0.04094   0.00014
  21        2PX        -0.08798   0.02492   0.10495   0.35381  -0.00028
  22        2PY        -0.11437  -0.08840   0.34129  -0.05494   0.00007
  23        2PZ         0.00004   0.00001   0.00000   0.00001  -0.43607
  24        3S          1.43449   0.97179   3.63966  -0.15929  -0.00027
  25        3PX         0.03820  -0.05892   0.43193   3.50708   0.00021
  26        3PY        -0.76142  -0.32464   2.26754  -0.23107  -0.00007
  27        3PZ         0.00016  -0.00001   0.00007   0.00000   0.14256
  28 4   C  1S          0.08636  -0.03013   0.05582  -0.07784   0.00001
  29        2S         -0.12272   0.01486  -0.08006   0.12746   0.00014
  30        2PX         0.15199  -0.30312  -0.06297   0.14906   0.00016
  31        2PY         0.24734  -0.03304   0.13891  -0.38569  -0.00005
  32        2PZ        -0.00007   0.00001  -0.00004  -0.00001  -0.73722
  33        3S         -0.87145   0.53744  -1.44276   2.29663   0.00009
  34        3PX         0.76190  -0.90213  -1.97724   1.17553  -0.00041
  35        3PY         0.69792  -0.02544   0.07872  -1.75937   0.00017
  36        3PZ        -0.00014   0.00004  -0.00004   0.00009   0.83941
  37 5   H  1S          0.07070  -0.01261  -0.02304  -0.03858   0.00002
  38        2S         -0.23667  -0.19963   0.18846   1.04384  -0.00016
  39 6   H  1S          0.05204  -0.04883  -0.02687  -0.00919  -0.00002
  40        2S         -1.27440  -0.72692   1.07159   0.13401   0.00005
  41 7   H  1S          0.03566   0.04673  -0.02828  -0.17359  -0.00004
  42        2S          0.32964   1.67732  -0.75761   0.13016   0.00007
  43 8   H  1S         -0.05433   0.01736  -0.04219   0.01513   0.00014
  44        2S         -0.94414  -0.67603   0.43975  -1.06863   0.00017
                          26        27        28        29        30
                           V         V         V         V         V
     Eigenvalues --     0.49608   0.52246   0.54768   0.55436   0.60062
   1 1   O  1S          0.00544   0.02387   0.00002   0.01905   0.00566
   2        2S         -0.08201  -0.07706  -0.00009  -0.10718  -0.01454
   3        2PX        -0.26999  -0.01260   0.00025   0.24701   0.14255
   4        2PY         0.07948  -0.25788   0.00021   0.16511  -0.28999
   5        2PZ         0.00000  -0.00003   0.13702  -0.00018  -0.00005
   6        3S          0.56059  -0.16880  -0.00064  -0.60883  -0.17303
   7        3PX         0.12907  -0.23881  -0.00027  -0.27348  -0.10045
   8        3PY         0.04441  -0.01018  -0.00014  -0.09129   0.05978
   9        3PZ        -0.00010   0.00011   0.02014  -0.00006   0.00017
  10 2   C  1S          0.02074   0.01789   0.00001   0.00879  -0.02569
  11        2S         -0.08759  -0.32752  -0.00026  -0.21004   0.24723
  12        2PX         0.04960   0.64560   0.00040   0.29694  -0.23587
  13        2PY        -0.30075   0.21801   0.00013   0.01156  -0.32993
  14        2PZ        -0.00033   0.00015  -0.83580   0.00071  -0.00008
  15        3S          0.36162  -0.37525  -0.00022  -0.14012  -0.23256
  16        3PX         0.32005  -0.58435  -0.00037  -0.28176   0.04264
  17        3PY         0.75803  -0.22452   0.00008   0.25528   0.55568
  18        3PZ         0.00036  -0.00019   0.94491  -0.00070   0.00004
  19 3   C  1S         -0.01088  -0.05620  -0.00001   0.00123   0.06402
  20        2S         -0.09683  -0.12605  -0.00048  -0.47171   0.12546
  21        2PX         0.46146  -0.35312   0.00033   0.38084  -0.05579
  22        2PY        -0.10480   0.07985  -0.00029  -0.37227  -0.31901
  23        2PZ        -0.00015  -0.00002  -0.02410   0.00020  -0.00018
  24        3S         -0.08326   0.24087   0.00026   0.27734   0.24076
  25        3PX        -0.46066   0.78092   0.00037   0.20228  -0.12805
  26        3PY         0.03810   0.30654   0.00036   0.45349   0.59968
  27        3PZ         0.00000   0.00013   0.01903  -0.00041   0.00026
  28 4   C  1S         -0.02667   0.00261   0.00000  -0.00782  -0.03240
  29        2S         -0.02439  -0.15258  -0.00097  -0.89698   0.15724
  30        2PX        -0.65653  -0.54175   0.00048   0.51296   0.36062
  31        2PY         0.00242  -0.18565   0.00040   0.33954  -0.41153
  32        2PZ        -0.00024   0.00007   0.63342  -0.00080   0.00023
  33        3S         -0.27269   0.60435   0.00150   1.36882  -0.04668
  34        3PX         1.21872  -0.05746  -0.00065  -0.67862  -0.79693
  35        3PY        -0.12658   0.29316  -0.00090  -0.75513   0.94519
  36        3PZ         0.00030  -0.00012  -0.81221   0.00119  -0.00038
  37 5   H  1S         -0.07481  -0.35042  -0.00034  -0.39627  -0.39710
  38        2S          0.18327  -0.06561   0.00035   0.28688  -0.33544
  39 6   H  1S          0.13602  -0.02991  -0.00024  -0.12901   0.56745
  40        2S         -0.03806   0.17815   0.00004   0.05557   0.10526
  41 7   H  1S          0.18546   0.09436  -0.00002   0.01753   0.15636
  42        2S         -0.11187  -0.01206   0.00024   0.24108   0.16580
  43 8   H  1S         -0.33690  -0.03505   0.00002  -0.04919  -0.17250
  44        2S         -0.32282   0.16010  -0.00010  -0.16418  -0.13787
                          31        32        33        34        35
                           V         V         V         V         V
     Eigenvalues --     0.60608   0.63434   0.77551   0.80722   0.81859
   1 1   O  1S          0.00000  -0.00323  -0.00884   0.03530   0.03502
   2        2S         -0.00004   0.03414   0.03166  -0.22018  -0.21902
   3        2PX         0.00000   0.03351  -0.04925   0.33009   0.39331
   4        2PY         0.00015  -0.01673   0.03627   0.16850   0.36256
   5        2PZ         0.02873  -0.00001  -0.00004   0.00018   0.00032
   6        3S         -0.00004  -0.08842   0.11243  -0.23673  -0.23155
   7        3PX        -0.00001  -0.04380   0.20015  -0.73775  -0.70233
   8        3PY        -0.00006   0.01435  -0.23417  -0.08460  -0.58581
   9        3PZ         0.12648   0.00003   0.00002  -0.00022  -0.00043
  10 2   C  1S          0.00001  -0.06510   0.00928  -0.00373   0.00768
  11        2S         -0.00004  -0.53265  -0.44911   0.35353   0.00095
  12        2PX         0.00008  -0.42978   0.15597   0.26747  -0.11589
  13        2PY         0.00005  -0.16163  -0.41061  -0.79682   0.14455
  14        2PZ         0.30593  -0.00002   0.00000   0.00002   0.00002
  15        3S          0.00002   0.70759   1.58676  -1.31043  -0.57046
  16        3PX        -0.00006   1.01701  -0.82345  -0.52582   0.51973
  17        3PY         0.00001   0.35282   0.96213   2.43558  -0.48743
  18        3PZ        -0.75816   0.00000  -0.00001  -0.00003   0.00001
  19 3   C  1S          0.00000   0.02333   0.01162   0.01188  -0.01511
  20        2S         -0.00001  -0.56446  -0.47645   0.34131   0.50429
  21        2PX         0.00018  -0.60581   0.18233  -0.36996  -0.13439
  22        2PY        -0.00006  -0.20524   0.46145   0.28110  -0.57762
  23        2PZ        -0.97477  -0.00006  -0.00003   0.00001   0.00003
  24        3S         -0.00039   0.84953   0.83123  -1.23330  -0.74794
  25        3PX         0.00010   0.79202  -1.01295   2.38134   0.49860
  26        3PY        -0.00008   0.26408  -1.92334  -1.19459   1.68314
  27        3PZ         1.62264   0.00010   0.00001   0.00002  -0.00014
  28 4   C  1S          0.00000   0.01016   0.02432   0.00654   0.02791
  29        2S         -0.00024  -0.18576  -0.83002   0.10643  -0.19627
  30        2PX         0.00007  -0.11130   0.11187  -0.18559  -0.12922
  31        2PY         0.00015   0.13045  -0.70265   0.36842  -0.39700
  32        2PZ         0.32554   0.00001  -0.00003  -0.00001  -0.00006
  33        3S          0.00049   0.34541   1.58037   1.94560   0.95213
  34        3PX         0.00016   0.06284  -0.04538   0.73764  -0.45028
  35        3PY        -0.00046  -0.23813   2.16651  -1.88165   0.22215
  36        3PZ        -0.85696  -0.00004   0.00006   0.00013   0.00030
  37 5   H  1S         -0.00002  -0.01797   0.52644  -0.09472   0.56968
  38        2S          0.00020   0.03099  -2.12341   0.98049  -0.93612
  39 6   H  1S         -0.00013  -0.14108   0.07703   0.15313  -0.23567
  40        2S          0.00003   0.08546  -1.27994  -0.47233   1.48256
  41 7   H  1S         -0.00002  -0.57662  -0.14873  -0.29924   0.26903
  42        2S          0.00005  -0.26125   0.56953   1.56563  -0.56470
  43 8   H  1S          0.00004  -0.55443   0.18517   0.34669  -0.09434
  44        2S         -0.00007  -0.15992  -0.85144  -1.49922   0.41268
                          36        37        38        39        40
                           V         V         V         V         V
     Eigenvalues --     0.86402   0.87040   0.89683   0.95473   0.96543
   1 1   O  1S         -0.02823   0.00007   0.00227  -0.01401   0.00204
   2        2S          0.26603  -0.00061  -0.04322   0.21087  -0.06169
   3        2PX        -0.28058   0.00097  -0.08597  -0.14797   0.51128
   4        2PY        -0.24892   0.00022   0.08065  -0.01700  -0.59784
   5        2PZ        -0.00148  -0.91923  -0.00040   0.00006   0.00059
   6        3S         -0.19401   0.00055   0.04208  -0.47594   0.38128
   7        3PX         0.44592  -0.00161   0.19816   0.02268  -0.71775
   8        3PY         0.29567   0.00009  -0.20633   0.06568   1.07019
   9        3PZ         0.00203   1.25265   0.00054  -0.00010  -0.00077
  10 2   C  1S          0.01003   0.00000  -0.04365   0.00393  -0.00194
  11        2S          0.02264   0.00005   0.69565   1.51775   0.39816
  12        2PX         0.10477  -0.00051   0.67812  -0.24289  -0.02892
  13        2PY        -0.49082   0.00072   0.14674   0.08105   0.07004
  14        2PZ        -0.00012  -0.06960  -0.00002   0.00000   0.00004
  15        3S         -0.26089   0.00024  -0.75842  -3.77835  -0.24802
  16        3PX         0.00049   0.00069  -1.40088   1.05495  -0.05536
  17        3PY         0.78691  -0.00108  -0.43629   0.25154  -0.21573
  18        3PZ         0.00009   0.04945   0.00001   0.00003  -0.00007
  19 3   C  1S         -0.02976   0.00005  -0.00591   0.00797  -0.00038
  20        2S          0.46120  -0.00077   0.40654   0.11863  -0.37837
  21        2PX        -0.05352   0.00007   0.28238  -0.37472   0.31660
  22        2PY        -0.60855   0.00088  -0.00641   0.04494   0.02123
  23        2PZ         0.00005   0.01335   0.00002   0.00001  -0.00005
  24        3S         -0.41137  -0.00041  -0.32017  -0.38216  -0.26963
  25        3PX         0.09749   0.00071  -1.34970   2.42710  -0.50207
  26        3PY         1.18275  -0.00212   0.13288  -0.21307  -0.53527
  27        3PZ         0.00025   0.17532   0.00001   0.00000   0.00002
  28 4   C  1S          0.00043   0.00001   0.01090  -0.02016   0.00605
  29        2S          0.00671  -0.00029   0.31140  -1.43186  -0.01147
  30        2PX         0.07094  -0.00045   0.18568  -0.28124  -0.16507
  31        2PY        -0.07526   0.00019  -0.15825   0.03701   0.01586
  32        2PZ         0.00020   0.12210   0.00005  -0.00003  -0.00005
  33        3S         -0.58192   0.00237  -1.10708   3.83269   0.01766
  34        3PX        -0.31416   0.00183  -0.79440   1.15294   1.04607
  35        3PY         0.14465  -0.00144   0.82269  -0.67831  -0.64487
  36        3PZ        -0.00103  -0.61846  -0.00026   0.00015   0.00029
  37 5   H  1S          0.04235   0.00022   0.20372  -0.08554   0.32622
  38        2S         -0.09644   0.00043  -0.57455  -0.34828   0.09614
  39 6   H  1S         -0.79619   0.00100   0.00579   0.04481  -0.26253
  40        2S          1.66783  -0.00238   0.09128   0.00836  -0.15926
  41 7   H  1S         -0.22151   0.00061  -0.74750   0.05812  -0.09028
  42        2S          0.58875  -0.00144   1.44734   0.20267   0.13533
  43 8   H  1S          0.44001  -0.00039  -0.70729  -0.03598  -0.06612
  44        2S         -0.91255   0.00105   1.21886   0.61411   0.29797
                          41        42        43        44
                           V         V         V         V
     Eigenvalues --     1.07962   1.13049   1.26510   1.58732
   1 1   O  1S          0.00802  -0.00960   0.00331   0.03364
   2        2S         -0.02636   0.14962   0.06996  -1.81162
   3        2PX        -0.20028   0.06172  -0.10577  -0.28659
   4        2PY        -0.19543   0.26353  -0.01389  -0.11629
   5        2PZ        -0.00006  -0.00004  -0.00003   0.00004
   6        3S         -0.73279   0.03753  -0.55868   4.08033
   7        3PX        -0.00069   0.11834   0.02533   1.64412
   8        3PY         0.55533  -0.70993   0.04908   0.50904
   9        3PZ         0.00015   0.00006   0.00009  -0.00015
  10 2   C  1S          0.01532   0.02046   0.01633   0.00765
  11        2S          0.11076   0.99096   0.28721   0.27688
  12        2PX         0.21238  -0.01785   0.14014  -0.17830
  13        2PY        -0.15822  -0.12643   0.07512   0.02965
  14        2PZ         0.00001  -0.00001   0.00000  -0.00002
  15        3S         -2.74085  -3.25145  -3.00633   0.16338
  16        3PX         0.05133   0.66354   1.69597   0.38544
  17        3PY         2.28632   0.82396  -1.83807  -0.41913
  18        3PZ        -0.00002   0.00002   0.00003   0.00002
  19 3   C  1S         -0.00194  -0.05089  -0.03102  -0.01713
  20        2S         -0.26099  -1.64748  -1.03881  -0.19429
  21        2PX        -0.34132  -0.07611  -0.02506  -0.03552
  22        2PY        -0.01546  -0.07696  -0.52114   0.01544
  23        2PZ        -0.00002  -0.00002  -0.00001   0.00001
  24        3S          0.40433   6.51016   3.63273   1.08815
  25        3PX         3.74754  -0.37658   0.19166  -1.07657
  26        3PY         0.09304   0.47470   4.75573  -0.59431
  27        3PZ         0.00015   0.00002   0.00000   0.00000
  28 4   C  1S          0.00028   0.02454   0.02292   0.02224
  29        2S          0.01016   0.93638   0.23441  -0.02696
  30        2PX         0.30083   0.06642  -0.12920   0.18640
  31        2PY         0.28634  -0.21737   0.10423  -0.03526
  32        2PZ         0.00003   0.00001   0.00001  -0.00003
  33        3S          1.50727  -3.11563  -3.14191  -2.65006
  34        3PX        -0.17644  -1.52114  -1.74020   1.59354
  35        3PY        -2.90869   1.81835  -1.15703   1.82892
  36        3PZ        -0.00013  -0.00006  -0.00011  -0.00009
  37 5   H  1S          0.70716  -0.18207   0.52388  -0.03148
  38        2S          0.86443  -0.31247   0.74216  -0.49702
  39 6   H  1S          0.08506  -0.52702   0.79528  -0.21581
  40        2S          0.01649  -0.43492   1.38524  -0.36741
  41 7   H  1S          0.70495   0.25399  -0.46083  -0.07793
  42        2S          0.54282   0.51431  -0.42639  -0.26464
  43 8   H  1S         -0.47196   0.00520   0.66381   0.13527
  44        2S         -0.47615   0.15262   0.87064   0.07023
     Beta Molecular Orbital Coefficients:
                           1         2         3         4         5
                           O         O         O         O         O
     Eigenvalues --   -18.86290  -9.98339  -9.94278  -9.91338  -0.92698
   1 1   O  1S          0.99511   0.00007   0.00000  -0.00002  -0.19779
   2        2S          0.02959  -0.00012  -0.00006  -0.00034   0.43695
   3        2PX         0.00195  -0.00059  -0.00002  -0.00005   0.15508
   4        2PY         0.00077  -0.00013  -0.00006   0.00002   0.06102
   5        2PZ         0.00000   0.00000   0.00000   0.00000  -0.00001
   6        3S         -0.01980   0.00010  -0.00015   0.00120   0.46040
   7        3PX        -0.00594  -0.00092  -0.00047   0.00055   0.07897
   8        3PY        -0.00212  -0.00111   0.00036   0.00000   0.02824
   9        3PZ         0.00000   0.00000   0.00000   0.00000  -0.00001
  10 2   C  1S         -0.00002  -0.00017   0.00481   0.99499  -0.00278
  11        2S         -0.00035  -0.00051  -0.00211   0.03675   0.00781
  12        2PX         0.00038   0.00038   0.00111  -0.00020  -0.00635
  13        2PY        -0.00010  -0.00004   0.00043  -0.00007  -0.00016
  14        2PZ         0.00000   0.00000   0.00000   0.00000   0.00000
  15        3S         -0.00215   0.00009   0.01176  -0.02933   0.01701
  16        3PX        -0.00045  -0.00084  -0.00577   0.00271   0.00458
  17        3PY         0.00117  -0.00027  -0.00006   0.00116  -0.01590
  18        3PZ         0.00000   0.00000   0.00000   0.00000   0.00000
  19 3   C  1S          0.00003   0.00254   0.99502  -0.00497  -0.01967
  20        2S          0.00009  -0.00208   0.03817  -0.00242   0.03753
  21        2PX         0.00004   0.00110  -0.00025  -0.00129  -0.02675
  22        2PY        -0.00021  -0.00077   0.00047  -0.00058   0.00843
  23        2PZ         0.00000   0.00000   0.00000   0.00000   0.00000
  24        3S         -0.00101   0.01028  -0.03661   0.01041   0.02882
  25        3PX         0.00338  -0.00492   0.00077   0.00475  -0.03414
  26        3PY         0.00292   0.00427  -0.00588   0.00188  -0.00504
  27        3PZ         0.00000   0.00000   0.00000   0.00000   0.00000
  28 4   C  1S          0.00006   0.99494  -0.00268   0.00011  -0.10012
  29        2S         -0.00035   0.03623  -0.00247  -0.00046   0.20435
  30        2PX        -0.00010  -0.00067  -0.00104  -0.00014  -0.14373
  31        2PY         0.00018  -0.00020   0.00071   0.00001  -0.06090
  32        2PZ         0.00000   0.00000   0.00000   0.00000   0.00001
  33        3S          0.00924  -0.02591   0.01337   0.00002   0.02571
  34        3PX        -0.00707  -0.00564   0.00581   0.00082   0.02761
  35        3PY        -0.00560   0.00071  -0.00265   0.00040   0.03843
  36        3PZ         0.00000   0.00000   0.00000   0.00000   0.00000
  37 5   H  1S         -0.00006  -0.00118  -0.00044  -0.00011   0.03095
  38        2S          0.00145   0.00514  -0.00023  -0.00021  -0.00845
  39 6   H  1S          0.00037  -0.00020  -0.00124  -0.00031   0.00651
  40        2S          0.00164   0.00118   0.00386   0.00013  -0.00024
  41 7   H  1S          0.00016   0.00002  -0.00012  -0.00114  -0.00077
  42        2S          0.00087   0.00074   0.00074   0.00519  -0.00913
  43 8   H  1S         -0.00021  -0.00009  -0.00055  -0.00113   0.00285
  44        2S         -0.00002   0.00024  -0.00097   0.00520   0.00470
                           6         7         8         9        10
                           O         O         O         O         O
     Eigenvalues --    -0.69772  -0.56851  -0.50407  -0.41211  -0.40640
   1 1   O  1S          0.04802  -0.06630   0.03729  -0.05376   0.04974
   2        2S         -0.11285   0.15386  -0.08651   0.11322  -0.10857
   3        2PX         0.00610  -0.07260   0.04204  -0.20331   0.29635
   4        2PY        -0.01132  -0.02129   0.11680  -0.18050  -0.03219
   5        2PZ         0.00000   0.00000  -0.00002   0.00005   0.00002
   6        3S         -0.11703   0.20184  -0.11598   0.22163  -0.17870
   7        3PX         0.00607  -0.03539   0.02248  -0.09497   0.16246
   8        3PY        -0.00228  -0.00590   0.06094  -0.09407  -0.02355
   9        3PZ         0.00000   0.00000  -0.00001   0.00002   0.00000
  10 2   C  1S         -0.11521  -0.14496  -0.06120  -0.00159  -0.02787
  11        2S          0.22291   0.29137   0.12306   0.00015   0.05873
  12        2PX        -0.09128   0.02949   0.06230  -0.10200   0.25304
  13        2PY        -0.03241  -0.02089   0.09770   0.22690   0.13823
  14        2PZ        -0.00001   0.00000   0.00000   0.00000   0.00001
  15        3S          0.15908   0.22393   0.10186   0.02577   0.08429
  16        3PX        -0.02027   0.02725   0.01696  -0.05069   0.07636
  17        3PY         0.00863  -0.00490   0.03004   0.08702   0.04308
  18        3PZ         0.00000   0.00000   0.00000   0.00000   0.00001
  19 3   C  1S         -0.16918   0.02390   0.08872  -0.00334   0.04191
  20        2S          0.34064  -0.05127  -0.18584   0.01148  -0.08653
  21        2PX         0.01429   0.24045   0.04706  -0.11918  -0.24370
  22        2PY         0.06011  -0.02751   0.18019   0.27482  -0.03389
  23        2PZ        -0.00001   0.00000   0.00001   0.00000   0.00001
  24        3S          0.21622  -0.03715  -0.15214  -0.03770  -0.13038
  25        3PX         0.00096   0.06307   0.01687  -0.04226  -0.06609
  26        3PY        -0.02003   0.00884   0.06009   0.07678  -0.03205
  27        3PZ        -0.00001   0.00001   0.00001   0.00001   0.00000
  28 4   C  1S         -0.07752   0.12035  -0.07673   0.01702  -0.03579
  29        2S          0.15559  -0.25632   0.16715  -0.05113   0.08849
  30        2PX         0.14725  -0.11013  -0.05650   0.26623  -0.05654
  31        2PY        -0.02747  -0.00605   0.25447  -0.11675  -0.28854
  32        2PZ        -0.00001   0.00001   0.00001  -0.00001   0.00000
  33        3S          0.11839  -0.20457   0.14363  -0.03198   0.07863
  34        3PX         0.03654  -0.01703  -0.01104   0.09393   0.03122
  35        3PY         0.00124  -0.01862   0.09705  -0.04938  -0.11138
  36        3PZ         0.00000   0.00000   0.00000  -0.00001  -0.00001
  37 5   H  1S          0.04500  -0.10873   0.19884  -0.09058  -0.12619
  38        2S          0.01130  -0.03679   0.10653  -0.05414  -0.09625
  39 6   H  1S          0.08869  -0.01666  -0.16685  -0.14494  -0.01614
  40        2S          0.01011   0.00476  -0.09068  -0.10664  -0.01230
  41 7   H  1S          0.05773   0.13194   0.05509  -0.11857   0.10782
  42        2S          0.02147   0.05220   0.02993  -0.08202   0.07516
  43 8   H  1S          0.05937   0.11245   0.10763   0.11638   0.13286
  44        2S          0.01121   0.04618   0.06468   0.07864   0.09201
                          11        12        13        14        15
                           O         O         O         O         V
     Eigenvalues --    -0.35239  -0.32574  -0.32492  -0.22888  -0.22208
   1 1   O  1S          0.03603   0.00220   0.00001   0.00000  -0.00054
   2        2S         -0.07703  -0.00467  -0.00002   0.00002   0.00667
   3        2PX         0.34484  -0.04455  -0.00004  -0.00064  -0.20458
   4        2PY         0.12130   0.10205   0.00019   0.00171   0.57474
   5        2PZ        -0.00004  -0.00170   0.47833  -0.34505   0.00109
   6        3S         -0.09606  -0.01863  -0.00006  -0.00008  -0.02763
   7        3PX         0.21373  -0.03014  -0.00004  -0.00047  -0.15334
   8        3PY         0.07752   0.05768   0.00011   0.00119   0.40875
   9        3PZ        -0.00003  -0.00108   0.30640  -0.25308   0.00084
  10 2   C  1S         -0.01261   0.01056   0.00004   0.00001   0.00561
  11        2S          0.02985  -0.02344  -0.00008  -0.00001  -0.00527
  12        2PX        -0.33077  -0.03777  -0.00016   0.00015   0.05363
  13        2PY         0.02968   0.34524   0.00120   0.00001   0.00822
  14        2PZ        -0.00002  -0.00024   0.07030   0.28368  -0.00086
  15        3S          0.07756  -0.02949  -0.00008  -0.00025  -0.08653
  16        3PX        -0.11242  -0.00933  -0.00006   0.00023   0.07993
  17        3PY        -0.00408   0.08991   0.00031   0.00002   0.00803
  18        3PZ        -0.00001  -0.00013   0.03814   0.19544  -0.00060
  19 3   C  1S         -0.01623  -0.00757  -0.00002  -0.00010  -0.03278
  20        2S          0.04038   0.00595   0.00003   0.00019   0.05912
  21        2PX         0.24579  -0.01470  -0.00001  -0.00048  -0.15453
  22        2PY         0.14523  -0.27438  -0.00097   0.00027   0.07986
  23        2PZ        -0.00001  -0.00064   0.18727   0.40975  -0.00118
  24        3S          0.01237   0.07927   0.00022   0.00103   0.36250
  25        3PX         0.02927  -0.05310  -0.00018  -0.00024  -0.08121
  26        3PY         0.00937  -0.04531  -0.00019   0.00034   0.10918
  27        3PZ         0.00000  -0.00032   0.09232   0.28759  -0.00085
  28 4   C  1S          0.01140   0.02890   0.00011   0.00000   0.00019
  29        2S         -0.00961  -0.06392  -0.00023   0.00006   0.01888
  30        2PX        -0.22898  -0.11730  -0.00043   0.00016   0.05050
  31        2PY        -0.13032   0.11413   0.00045  -0.00040  -0.12743
  32        2PZ         0.00000  -0.00110   0.32085   0.08066  -0.00009
  33        3S         -0.07538  -0.14276  -0.00051  -0.00027  -0.08739
  34        3PX         0.01154  -0.08770  -0.00029  -0.00039  -0.13402
  35        3PY         0.01705   0.06111   0.00024   0.00025   0.09122
  36        3PZ         0.00000  -0.00071   0.20811   0.02899   0.00004
  37 5   H  1S         -0.11852   0.05631   0.00024  -0.00049  -0.16433
  38        2S         -0.13111   0.07534   0.00030  -0.00075  -0.25735
  39 6   H  1S         -0.09367   0.21612   0.00077  -0.00008  -0.02786
  40        2S         -0.10892   0.21181   0.00076  -0.00021  -0.07594
  41 7   H  1S         -0.17684  -0.18530  -0.00066   0.00010   0.03218
  42        2S         -0.16967  -0.17555  -0.00063   0.00010   0.03050
  43 8   H  1S         -0.00155   0.23764   0.00083  -0.00004  -0.00862
  44        2S         -0.01143   0.24706   0.00086  -0.00007  -0.02102
                          16        17        18        19        20
                           V         V         V         V         V
     Eigenvalues --    -0.08186   0.04047   0.08594   0.09783   0.12702
   1 1   O  1S          0.00000   0.00000  -0.02303   0.02010  -0.00701
   2        2S          0.00000  -0.00001   0.04386  -0.04456   0.01022
   3        2PX        -0.00001  -0.00002   0.10436  -0.09965  -0.02182
   4        2PY         0.00006   0.00001   0.03492  -0.09687  -0.06273
   5        2PZ         0.30410   0.18249  -0.00003  -0.00002  -0.00002
   6        3S         -0.00001  -0.00001   0.29176  -0.22777   0.15627
   7        3PX        -0.00002  -0.00001   0.18398  -0.12154   0.04115
   8        3PY         0.00007   0.00002   0.02666  -0.18949  -0.04993
   9        3PZ         0.26462   0.20248  -0.00004  -0.00003  -0.00003
  10 2   C  1S          0.00000   0.00000   0.04156  -0.09535   0.08861
  11        2S          0.00001   0.00001  -0.07640   0.15214  -0.13860
  12        2PX        -0.00001  -0.00002  -0.09252   0.14371   0.02049
  13        2PY         0.00000   0.00001   0.13921   0.10330  -0.18935
  14        2PZ         0.40577  -0.29420   0.00003   0.00002   0.00001
  15        3S         -0.00001   0.00005  -0.57285   1.39704  -1.23885
  16        3PX         0.00002  -0.00002  -0.29526   0.46311   0.08095
  17        3PY        -0.00001   0.00000   0.28189   0.24602  -0.38663
  18        3PZ         0.41954  -0.49917   0.00006   0.00004   0.00000
  19 3   C  1S          0.00000   0.00001   0.06094   0.01332  -0.03154
  20        2S         -0.00001  -0.00002  -0.08958  -0.04317   0.06268
  21        2PX         0.00002   0.00000   0.04306   0.02981   0.12630
  22        2PY        -0.00001   0.00001   0.25252  -0.06224  -0.16414
  23        2PZ        -0.07135   0.46417  -0.00005  -0.00004  -0.00001
  24        3S          0.00005  -0.00017  -1.04700   0.24176   0.35859
  25        3PX         0.00001   0.00000   0.24512  -0.14374   0.46310
  26        3PY         0.00000   0.00003   0.45454  -0.14739  -0.59676
  27        3PZ        -0.08010   0.65869  -0.00009  -0.00007   0.00002
  28 4   C  1S         -0.00001  -0.00002  -0.02021  -0.08291  -0.07644
  29        2S          0.00001   0.00003   0.01914   0.14602   0.13515
  30        2PX        -0.00002  -0.00002   0.09580  -0.05718   0.03098
  31        2PY         0.00000   0.00003   0.22503   0.22673   0.19107
  32        2PZ        -0.41108  -0.37561   0.00004   0.00006   0.00003
  33        3S          0.00008   0.00023   0.48601   1.01336   1.25774
  34        3PX        -0.00002   0.00000   0.37786  -0.25480   0.46946
  35        3PY         0.00001   0.00009   0.35703   0.63576   0.49550
  36        3PZ        -0.35756  -0.52232   0.00006   0.00011   0.00006
  37 5   H  1S         -0.00003  -0.00004  -0.08214  -0.03081  -0.07278
  38        2S         -0.00007  -0.00022  -0.83408  -1.29826  -1.19755
  39 6   H  1S          0.00000   0.00003   0.13289   0.02337  -0.04287
  40        2S         -0.00002   0.00015   1.32990  -0.09322  -0.84608
[...]
      6  0.152502D+00
      7  0.471146D-02  0.576660D+00
      8  0.110474D-02  0.364235D-01  0.634107D+00
      9 -0.731964D-01 -0.194394D-02 -0.477436D-03  0.115134D+00
     10  0.126937D-02 -0.161806D+00  0.106953D+00 -0.472983D-03  0.526855D+00
     11 -0.458799D-03  0.829105D-01 -0.146264D+00  0.243810D-03 -0.413481D-01
     12 -0.200833D+00 -0.115552D-01 -0.280154D-02  0.520040D-01 -0.311517D-02
     13 -0.566661D-03 -0.149988D-02  0.284022D-01  0.233359D-03 -0.279994D-01
     14  0.995671D-04 -0.282604D-02 -0.158377D-01 -0.387415D-04  0.133621D-01
     15  0.661904D-01  0.380377D-02  0.945154D-03 -0.267115D-01  0.101829D-02
     16 -0.810404D-04 -0.539413D-01 -0.244059D-01  0.233215D-04 -0.789831D-02
     17  0.788629D-04 -0.244018D-01 -0.315650D+00 -0.296026D-04  0.890756D-03
     18  0.702723D-01  0.379545D-02  0.931008D-03 -0.635017D-01  0.950281D-03
     19 -0.456554D-04 -0.185282D-01  0.179703D-01  0.826608D-05 -0.338155D-02
     20 -0.141429D-03 -0.136561D-01  0.698682D-02  0.513209D-04 -0.506108D-02
     21 -0.814903D-01 -0.360389D-02 -0.850553D-03  0.281928D-01 -0.924537D-03
     22  0.867794D-04 -0.256794D-02 -0.302000D-01 -0.349398D-04  0.395214D-02
     23  0.509424D-04  0.287247D-02 -0.911266D-02 -0.179356D-04  0.335097D-03
     24 -0.238523D-02  0.118912D-02  0.285044D-03 -0.576945D-02  0.279693D-03
               11            12            13            14            15 
     11  0.474150D+00
     12  0.126281D-02  0.559429D+00
     13 -0.499408D-02  0.136674D-02  0.478733D-01
     14 -0.281931D+00 -0.254277D-03  0.402251D-02  0.317412D+00
     15 -0.470759D-03 -0.183677D+00 -0.447611D-03  0.911495D-04  0.653872D-01
     16  0.245923D-01  0.203171D-03 -0.267241D-02  0.218304D-02 -0.634274D-04
     17 -0.146017D-01 -0.211036D-03  0.142972D-02 -0.671663D-03  0.686573D-04
     18 -0.467580D-03 -0.160801D+00 -0.444953D-03  0.759844D-04  0.595453D-01
     19 -0.260048D-02  0.901177D-04  0.340167D-03  0.270919D-04 -0.287767D-04
     20  0.133746D-02  0.355658D-03  0.802970D-04 -0.102667D-03 -0.115590D-03
     21  0.369310D-03  0.159393D+00  0.425534D-03 -0.704352D-04 -0.514671D-01
     22 -0.413880D-03 -0.218024D-03 -0.427821D-03  0.725890D-03  0.708284D-04
     23  0.758992D-03 -0.117093D-03 -0.782465D-03  0.245304D-03  0.388246D-04
     24 -0.125367D-03 -0.532522D-01 -0.138543D-03  0.189344D-04  0.165894D-01
               16            17            18            19            20 
     16  0.620021D-01
     17  0.256923D-01  0.338165D+00
     18 -0.598296D-04  0.690389D-04  0.771582D-01
     19  0.100838D-02 -0.167617D-03 -0.273988D-04  0.249704D+00
     20  0.261858D-03  0.123852D-02 -0.114097D-03 -0.142132D+00  0.154583D+00
     21  0.618007D-04 -0.643365D-04 -0.548019D-01  0.374468D-04  0.106646D-03
     22 -0.390776D-02 -0.147179D-02  0.732539D-04  0.516270D-02  0.230424D-01
     23 -0.169601D-02  0.898895D-03  0.356031D-04 -0.569810D-02 -0.121055D-01
     24 -0.214292D-04  0.236631D-04  0.237389D-01 -0.608478D-05 -0.317893D-04
               21            22            23            24 
     21  0.607544D-01
     22 -0.713019D-04  0.588032D-01
     23 -0.341156D-04  0.431792D-01  0.341272D+00
     24 -0.134002D-01  0.257515D-04  0.660033D-05  0.192939D-01
 Force constants in internal coordinates: 
                1             2             3             4             5 
      1  0.365214D+00
      2  0.538681D-02  0.437800D+00
      3  0.269304D-03  0.296720D-02  0.352022D+00
      4 -0.362806D-03  0.409576D-02  0.104534D-02  0.347731D+00
      5  0.339187D-01  0.715161D-01 -0.125873D-02  0.462379D-03  0.377140D+00
      6 -0.168652D-02  0.543674D-02  0.788259D-03 -0.447868D-03  0.547822D-02
      7  0.213502D-01 -0.118692D-02  0.822535D-04  0.346848D-03  0.527010D-02
      8 -0.165694D-02  0.127664D-01  0.611865D-02 -0.136384D-01  0.747296D-02
      9  0.194720D-02  0.100802D-01 -0.128786D-01  0.705187D-02 -0.614648D-02
     10 -0.290272D-03 -0.228466D-01  0.675993D-02  0.658658D-02 -0.132648D-02
     11  0.880940D-02  0.211486D-01  0.297662D-02 -0.325327D-02  0.180038D-01
     12  0.302377D-02  0.554698D-02 -0.226304D-02  0.401398D-02 -0.299819D-01
     13 -0.118332D-01 -0.266956D-01 -0.713583D-03 -0.760711D-03  0.119781D-01
     14  0.318487D-01 -0.166810D-02  0.106300D-02 -0.171597D-03  0.196276D-01
     15  0.118323D-01  0.205615D-02 -0.290420D-03 -0.792494D-03 -0.274192D-01
     16 -0.436812D-01 -0.387215D-03 -0.772590D-03  0.964079D-03  0.779152D-02
     17  0.455524D-03 -0.222313D-02  0.284364D-04  0.297780D-04  0.247406D-03
     18  0.745580D-03 -0.361500D-02  0.459383D-04  0.489944D-04  0.398517D-03
     19  0.414562D-04 -0.234371D-03  0.307584D-05  0.233038D-05  0.395552D-04
     20  0.331513D-03 -0.162624D-02  0.205777D-04  0.215468D-04  0.190666D-03
     21  0.858648D-03 -0.410555D-02  0.511217D-04  0.576683D-04  0.408811D-03
     22 -0.500030D-03  0.243010D-02 -0.300733D-04 -0.342798D-04 -0.230150D-03
     23  0.577579D-03 -0.275572D-02  0.341332D-04  0.390924D-04  0.261823D-03
     24 -0.781098D-03  0.377993D-02 -0.470618D-04 -0.528557D-04 -0.377138D-03
                6             7             8             9            10 
      6  0.340525D+00
      7  0.453683D-03  0.317411D+00
      8 -0.267320D-02 -0.558507D-03  0.791505D-01
      9  0.332970D-02  0.976567D-03 -0.435162D-01  0.795089D-01
     10 -0.656497D-03 -0.418061D-03 -0.356343D-01 -0.359927D-01  0.716270D-01
     11 -0.134261D-01 -0.512508D-02  0.101115D-01 -0.895436D-02 -0.115713D-02
     12  0.504174D-02  0.242441D-03 -0.849839D-02  0.986350D-02 -0.136511D-02
     13  0.838433D-02  0.488264D-02 -0.161310D-02 -0.909148D-03  0.252225D-02
     14 -0.336417D-02 -0.208653D-01  0.347261D-03 -0.476480D-03  0.129212D-03
     15  0.466873D-03  0.146539D-01  0.424869D-03 -0.399014D-03 -0.258467D-04
     16  0.289731D-02  0.621133D-02 -0.772082D-03  0.875455D-03 -0.103373D-03
     17 -0.394575D-04  0.481146D-04 -0.140669D-03  0.116510D-03  0.236634D-04
     18 -0.614115D-04  0.815208D-04 -0.216446D-03  0.181204D-03  0.345961D-04
     19 -0.727344D-05  0.000000D+00 -0.106293D-04  0.119514D-04 -0.118065D-05
     20 -0.292274D-04  0.338674D-04 -0.864061D-04  0.766454D-04  0.975210D-05
     21 -0.695828D-04  0.976908D-04 -0.230737D-03  0.193244D-03  0.369723D-04
     22  0.433116D-04 -0.611627D-04  0.137915D-03 -0.114659D-03 -0.229068D-04
     23 -0.483236D-04  0.652544D-04 -0.157352D-03  0.130646D-03  0.263304D-04
     24  0.645708D-04 -0.935991D-04  0.211300D-03 -0.177257D-03 -0.335488D-04
               11            12            13            14            15 
     11  0.109247D+00
     12 -0.545119D-01  0.910385D-01
     13 -0.547350D-01 -0.365266D-01  0.912616D-01
     14  0.292411D-02 -0.848446D-03 -0.207567D-02  0.739878D-01
     15  0.340750D-02  0.100918D-02 -0.441667D-02 -0.358477D-01  0.694882D-01
     16 -0.633152D-02 -0.160797D-03  0.649232D-02 -0.381404D-01 -0.336403D-01
     17 -0.244934D-03  0.171406D-03  0.734278D-04  0.559668D-03 -0.580175D-03
     18 -0.397902D-03  0.270207D-03  0.127219D-03  0.943273D-03 -0.964368D-03
     19 -0.147803D-04  0.165983D-04 -0.174725D-05  0.542815D-04 -0.572396D-04
     20 -0.167748D-03  0.115399D-03  0.520438D-04  0.437887D-03 -0.441433D-03
     21 -0.463518D-03  0.312225D-03  0.150700D-03  0.102217D-02 -0.106776D-02
     22  0.279826D-03 -0.191815D-03 -0.878338D-04 -0.656744D-03  0.646280D-03
     23 -0.315291D-03  0.217886D-03  0.971761D-04  0.650251D-03 -0.695202D-03
     24  0.428052D-03 -0.286153D-03 -0.141357D-03 -0.102866D-02  0.101883D-02
               16            17            18            19            20 
     16  0.717807D-01
     17  0.126812D-04  0.365912D-01
     18  0.758366D-05  0.423690D-01  0.698343D-01
     19  0.243783D-05  0.402693D-02 -0.583202D-04  0.133246D-01
     20 -0.265974D-05  0.980466D-02  0.274070D-01  0.923940D-02  0.268417D-01
     21  0.285507D-04  0.339616D-01  0.682014D-01 -0.282870D-03  0.339569D-01
     22  0.205904D-04 -0.272764D-01 -0.375280D-01 -0.435412D-02 -0.146057D-01
     23  0.334244D-04  0.283598D-01  0.415723D-01  0.367800D-02  0.168905D-01
     24  0.254641D-04 -0.328783D-01 -0.641571D-01 -0.393253D-03 -0.316721D-01
               21            22            23            24 
     21  0.904828D-01
     22 -0.428530D-01  0.363887D-01
     23  0.572854D-01 -0.329135D-01  0.444752D-01
     24 -0.760503D-01  0.463281D-01 -0.457238D-01  0.766547D-01
 Leave Link  716 at Thu Mar 12 11:38:36 2015, MaxMem= 1048576000 cpu:       0.4
 (Enter /usr/soft/chemie/g09/l103.exe)

 GradGradGradGradGradGradGradGradGradGradGradGradGradGradGradGradGradGrad
 Berny optimization.
 Red2BG is reusing G-inverse.
 Internal  Forces:  Max     0.000118879 RMS     0.000032296
 Search for a local minimum.
 Step number   1 out of a maximum of    2
 All quantities printed in internal units (Hartrees-Bohrs-Radians)
 Second derivative matrix not updated -- analytic derivatives used.
 ITU=  0
     Eigenvalues ---    0.01356   0.01847   0.02155   0.02904   0.09373
     Eigenvalues ---    0.09974   0.10446   0.11071   0.12467   0.16406
     Eigenvalues ---    0.31083   0.31524   0.33249   0.34280   0.34929
     Eigenvalues ---    0.35329   0.38899   0.49662
 Angle between quadratic step and forces=  33.28 degrees.
 Linear search not attempted -- first point.
 Iteration  1 RMS(Cart)=  0.00033293 RMS(Int)=  0.00000006
 Iteration  2 RMS(Cart)=  0.00000007 RMS(Int)=  0.00000000
 Variable       Old X    -DE/DX   Delta X   Delta X   Delta X     New X
                                 (Linear)    (Quad)   (Total)
    R1        2.55546   0.00012   0.00000   0.00031   0.00031   2.55578
    R2        2.63002   0.00002   0.00000  -0.00001  -0.00001   2.63000
    R3        2.06106   0.00001   0.00000   0.00003   0.00003   2.06110
    R4        2.06487  -0.00001   0.00000  -0.00004  -0.00004   2.06483
    R5        2.66971   0.00004   0.00000   0.00011   0.00011   2.66983
    R6        2.06931   0.00000   0.00000   0.00002   0.00002   2.06933
    R7        2.08730  -0.00002   0.00000  -0.00011  -0.00011   2.08718
    A1        2.10364  -0.00003   0.00000  -0.00024  -0.00024   2.10340
    A2        2.13343   0.00003   0.00000   0.00026   0.00026   2.13370
    A3        2.04611   0.00000   0.00000  -0.00002  -0.00002   2.04609
    A4        2.17497   0.00004   0.00000   0.00025   0.00025   2.17522
    A5        2.08355   0.00000   0.00000  -0.00001  -0.00001   2.08354
    A6        2.02466  -0.00004   0.00000  -0.00023  -0.00023   2.02443
    A7        2.20615  -0.00001   0.00000  -0.00027  -0.00027   2.20588
    A8        1.95455   0.00003   0.00000   0.00032   0.00032   1.95487
    A9        2.12248  -0.00002   0.00000  -0.00005  -0.00005   2.12243
    D1       -3.14158  -0.00001   0.00000  -0.00001  -0.00001  -3.14159
    D2        0.00004  -0.00002   0.00000  -0.00003  -0.00003   0.00001
    D3        0.00000   0.00000   0.00000   0.00000   0.00000   0.00000
    D4       -3.14157  -0.00001   0.00000  -0.00002  -0.00002  -3.14159
    D5       -3.14149  -0.00002   0.00000  -0.00009  -0.00009  -3.14159
    D6       -0.00007   0.00001   0.00000   0.00006   0.00006  -0.00001
    D7        0.00008  -0.00002   0.00000  -0.00008  -0.00008   0.00000
    D8        3.14150   0.00002   0.00000   0.00008   0.00008   3.14158
         Item               Value     Threshold  Converged?
 Maximum Force            0.000119     0.000450     YES
 RMS     Force            0.000032     0.000300     YES
 Maximum Displacement     0.000937     0.001800     YES
 RMS     Displacement     0.000333     0.001200     YES
 Predicted change in Energy=-5.021078D-08
 Optimization completed.
    -- Stationary point found.
                           ----------------------------
                           !   Optimized Parameters   !
                           ! (Angstroms and Degrees)  !
 --------------------------                            --------------------------
 ! Name  Definition              Value          Derivative Info.                !
 --------------------------------------------------------------------------------
 ! R1    R(1,4)                  1.3523         -DE/DX =    0.0001              !
 ! R2    R(2,3)                  1.3917         -DE/DX =    0.0                 !
 ! R3    R(2,7)                  1.0907         -DE/DX =    0.0                 !
 ! R4    R(2,8)                  1.0927         -DE/DX =    0.0                 !
 ! R5    R(3,4)                  1.4128         -DE/DX =    0.0                 !
 ! R6    R(3,6)                  1.095          -DE/DX =    0.0                 !
 ! R7    R(4,5)                  1.1045         -DE/DX =    0.0                 !
 ! A1    A(3,2,7)              120.5296         -DE/DX =    0.0                 !
 ! A2    A(3,2,8)              122.2368         -DE/DX =    0.0                 !
 ! A3    A(7,2,8)              117.2336         -DE/DX =    0.0                 !
 ! A4    A(2,3,4)              124.6167         -DE/DX =    0.0                 !
 ! A5    A(2,3,6)              119.3788         -DE/DX =    0.0                 !
 ! A6    A(4,3,6)              116.0045         -DE/DX =    0.0                 !
 ! A7    A(1,4,3)              126.4033         -DE/DX =    0.0                 !
 ! A8    A(1,4,5)              111.9877         -DE/DX =    0.0                 !
 ! A9    A(3,4,5)              121.609          -DE/DX =    0.0                 !
 ! D1    D(7,2,3,4)           -179.999          -DE/DX =    0.0                 !
 ! D2    D(7,2,3,6)              0.0022         -DE/DX =    0.0                 !
 ! D3    D(8,2,3,4)             -0.0001         -DE/DX =    0.0                 !
 ! D4    D(8,2,3,6)           -179.9988         -DE/DX =    0.0                 !
 ! D5    D(2,3,4,1)           -179.9942         -DE/DX =    0.0                 !
 ! D6    D(2,3,4,5)             -0.0041         -DE/DX =    0.0                 !
 ! D7    D(6,3,4,1)              0.0046         -DE/DX =    0.0                 !
 ! D8    D(6,3,4,5)            179.9947         -DE/DX =    0.0                 !
 --------------------------------------------------------------------------------
 GradGradGradGradGradGradGradGradGradGradGradGradGradGradGradGradGradGrad

 Leave Link  103 at Thu Mar 12 11:38:36 2015, MaxMem= 1048576000 cpu:       0.0
 (Enter /usr/soft/chemie/g09/l9999.exe)

 Test job not archived.
 1\1\GINC-NODE89\Freq\UBLYP\6-31G\C3H4O1(3)\OB070\12-Mar-2015\0\\#P Geo
 m=AllCheck Guess=TCheck SCRF=Check Test GenChk UBLYP/6-31G Freq\\acrol
 ein test BLYP opt S0\\0,3\O,-1.900235,-0.167316,0.000034\C,1.830464,0.
 160063,0.000006\C,0.55689,-0.401155,-0.00002\C,-0.646364,0.339148,-0.0
 0005\H,-0.646501,1.443697,0.000013\H,0.450083,-1.490964,0.000003\H,2.7
 16299,-0.476218,0.000012\H,1.991132,1.240866,0.000004\\Version=EM64L-G
 09RevC.01\HF=-191.7009041\S2=2.012064\S2-1=0.\S2A=2.000039\RMSD=3.820e
 -10\RMSF=3.696e-05\ZeroPoint=0.0605638\Thermal=0.0650484\Dipole=0.3490
 063,0.26115,-0.0000662\DipoleDeriv=-0.60592,0.2027317,0.0042036,-0.126
 7788,-0.1465909,-0.0018144,0.0591532,-0.0108945,-0.3149265,-0.1847245,
 0.0367533,0.0149952,-0.0550691,0.1450885,0.0043932,0.0767375,-0.014040
 3,-0.6923207,0.3959453,-0.0765413,-0.0168596,0.0063524,0.0628279,-0.00
 41003,-0.0311675,0.0057947,0.0605561,0.2687825,-0.2115248,-0.0044185,0
 .118018,0.0959685,0.0018221,-0.1880447,0.0348125,0.5859564,0.1078301,0
 .0178901,0.002045,0.0524917,0.0552043,-0.0003522,0.0619171,-0.0115406,
 -0.0278291,0.0045429,-0.0362749,0.0002219,-0.0061215,-0.0851189,-0.000
 2986,0.0604864,-0.0112861,-0.0848794,-0.0323401,0.0545869,0.0001016,0.
 047366,-0.0062388,0.0005335,-0.0575772,0.0106008,0.3812307,0.0458838,0
 .012379,-0.0002891,-0.0362587,-0.1211406,-0.0001832,0.0184952,-0.00344
 65,0.0922125\Polar=63.7876314,1.1791958,32.1832531,0.2730772,-0.049314
 ,11.1957635\PG=C01 [X(C3H4O1)]\NImag=0\\0.32403759,0.10976465,0.074073
 54,-0.00090520,0.00035129,0.05893617,-0.00347358,-0.00319960,-0.003242
 36,0.65647231,-0.00217795,-0.00162653,-0.00093048,0.00911370,0.6192443
 4,-0.00116704,0.00047468,0.06894044,-0.00420721,-0.00120856,0.15250191
 ,-0.05508004,0.00425689,0.00360320,-0.28323614,-0.08557944,0.00471146,
 0.57665960,-0.00981412,-0.00003576,0.00086359,-0.12532922,-0.15419321,
 0.00110474,0.03642353,0.63410690,0.00048646,-0.00023723,-0.02615200,0.
 00170046,0.00050582,-0.07319644,-0.00194394,-0.00047744,0.11513430,-0.
 25308975,-0.08686955,0.00099506,-0.07663235,0.01173757,0.00126937,-0.1
 6180613,0.10695327,-0.00047298,0.52685537,-0.08161130,-0.05231392,-0.0
 0035343,0.02346512,0.01886508,-0.00045880,0.08291047,-0.14626438,0.000
 24381,-0.04134811,0.47414985,0.00287025,-0.00120001,-0.17226261,0.0103
 5807,0.00296549,-0.20083305,-0.01155516,-0.00280154,0.05200401,-0.0031
 1517,0.00126281,0.55942948,-0.01758087,-0.02749158,-0.00042787,0.00196
 698,-0.00066656,-0.00056666,-0.00149988,0.02840215,0.00023336,-0.02799
 942,-0.00499408,0.00136674,0.04787326,-0.01459540,-0.02088861,0.000077
 82,-0.00289915,0.00177430,0.00009957,-0.00282604,-0.01583766,-0.000038
 74,0.01336205,-0.28193137,-0.00025428,0.00402251,0.31741237,-0.0009477
 0,0.00042078,0.05414318,-0.00340537,-0.00097822,0.06619040,0.00380377,
 0.00094515,-0.02671155,0.00101829,-0.00047076,-0.18367686,-0.00044761,
 0.00009115,0.06538723,0.00612635,0.00347682,-0.00006257,-0.00071704,-0
 .03010433,-0.00008104,-0.05394130,-0.02440590,0.00002332,-0.00789831,0
 .02459226,0.00020317,-0.00267241,0.00218304,-0.00006343,0.06200209,-0.
 00273531,0.00041729,0.00006475,0.00076373,-0.00979600,0.00007886,-0.02
 440176,-0.31565005,-0.00002960,0.00089076,-0.01460173,-0.00021104,0.00
 142972,-0.00067166,0.00006866,0.02569227,0.33816474,-0.00093269,0.0004
 3708,0.04839014,-0.00335411,-0.00096704,0.07027230,0.00379545,0.000931
 01,-0.06350165,0.00095028,-0.00046758,-0.16080133,-0.00044495,0.000075
 98,0.05954528,-0.00005983,0.00006904,0.07715824,0.00000559,0.00043876,
 -0.00002791,-0.23431092,0.13216245,-0.00004566,-0.01852816,0.01797029,
 0.00000827,-0.00338155,-0.00260048,0.00009012,0.00034017,0.00002709,-0
 .00002878,0.00100838,-0.00016762,-0.00002740,0.24970379,0.00077865,-0.
 00005454,-0.00011072,0.13668638,-0.15188263,-0.00014143,-0.01365614,0.
 00698682,0.00005132,-0.00506108,0.00133746,0.00035566,0.00008030,-0.00
 010267,-0.00011559,0.00026186,0.00123852,-0.00011410,-0.14213239,0.154
 58253,0.00087870,-0.00037480,-0.04718021,0.00319625,0.00091828,-0.0814
 9033,-0.00360389,-0.00085055,0.02819278,-0.00092454,0.00036931,0.15939
 257,0.00042553,-0.00007044,-0.05146706,0.00006180,-0.00006434,-0.05480
 190,0.00003745,0.00010665,0.06075440,-0.00094529,-0.00037639,0.0000676
 5,-0.06006925,-0.03448544,0.00008678,-0.00256794,-0.03020000,-0.000034
 94,0.00395214,-0.00041388,-0.00021802,-0.00042782,0.00072589,0.0000708
 3,-0.00390776,-0.00147179,0.00007325,0.00516270,0.02304243,-0.00007130
 ,0.05880321,0.00039077,0.00042852,0.00003717,-0.03860095,-0.32238535,0
 .00005094,0.00287247,-0.00911266,-0.00001794,0.00033510,0.00075899,-0.
 00011709,-0.00078246,0.00024530,0.00003882,-0.00169601,0.00089890,0.00
 003560,-0.00569810,-0.01210549,-0.00003412,0.04317918,0.34127180,-0.00
 028277,0.00012820,0.01518488,-0.00104573,-0.00030529,-0.00238523,0.001
 18912,0.00028504,-0.00576945,0.00027969,-0.00012537,-0.05325221,-0.000
 13854,0.00001893,0.01658938,-0.00002143,0.00002366,0.02373892,-0.00000
 608,-0.00003179,-0.01340025,0.00002575,0.00000660,0.01929395\\0.000102
 91,0.00006354,0.00002002,-0.00000104,-0.00003634,0.00002480,-0.0000491
 3,-0.00000122,-0.00001076,-0.00003005,-0.00007393,-0.00006243,-0.00002
 550,0.00002151,0.00002076,0.00001619,0.00000297,0.00001975,0.00000003,
 0.00001210,-0.00001794,-0.00001341,0.00001137,0.00000580\\\@


 The mind is not a vessel to be filled but a fire to be kindled.
                                  -- Plutarch
 Job cpu time:  0 days  0 hours  0 minutes 53.9 seconds.
 File lengths (MBytes):  RWF=      8 Int=      0 D2E=      0 Chk=      1 Scr=      1
 Normal termination of Gaussian 09 at Thu Mar 12 11:38:37 2015.
