 Entering Gaussian System, Link 0=g09
 Input=t1-s0_noDusch.inp
 Output=t1-s0_noDusch.log
 Initial command:
 /usr/soft/chemie/g09/l1.exe /tmp/Gau-18957.inp -scrdir=/tmp/
 Entering Link 1 = /usr/soft/chemie/g09/l1.exe PID=     18958.
  
 Copyright (c) 1988,1990,1992,1993,1995,1998,2003,2009,2011,
            Gaussian, Inc.  All Rights Reserved.
  
 This is part of the Gaussian(R) 09 program.  It is based on
 the Gaussian(R) 03 system (copyright 2003, Gaussian, Inc.),
 the Gaussian(R) 98 system (copyright 1998, Gaussian, Inc.),
 the Gaussian(R) 94 system (copyright 1995, Gaussian, Inc.),
 the Gaussian 92(TM) system (copyright 1992, Gaussian, Inc.),
 the Gaussian 90(TM) system (copyright 1990, Gaussian, Inc.),
 the Gaussian 88(TM) system (copyright 1988, Gaussian, Inc.),
 the Gaussian 86(TM) system (copyright 1986, Carnegie Mellon
 University), and the Gaussian 82(TM) system (copyright 1983,
 Carnegie Mellon University). Gaussian is a federally registered
 trademark of Gaussian, Inc.
  
 This software contains proprietary and confidential information,
 including trade secrets, belonging to Gaussian, Inc.
  
 This software is provided under written license and may be
 used, copied, transmitted, or stored only in accord with that
 written license.
  
 The following legend is applicable only to US Government
 contracts under FAR:
  
                    RESTRICTED RIGHTS LEGEND
  
 Use, reproduction and disclosure by the US Government is
 subject to restrictions as set forth in subparagraphs (a)
 and (c) of the Commercial Computer Software - Restricted
 Rights clause in FAR 52.227-19.
  
 Gaussian, Inc.
 340 Quinnipiac St., Bldg. 40, Wallingford CT 06492
  
  
 ---------------------------------------------------------------
 Warning -- This program may not be used in any manner that
 competes with the business of Gaussian, Inc. or will provide
 assistance to any competitor of Gaussian, Inc.  The licensee
 of this program is prohibited from giving any competitor of
 Gaussian, Inc. access to this program.  By using this program,
 the user acknowledges that Gaussian, Inc. is engaged in the
 business of creating and licensing software in the field of
 computational chemistry and represents and warrants to the
 licensee that it is not a competitor of Gaussian, Inc. and that
 it will not use this program in any manner prohibited above.
 ---------------------------------------------------------------
  

 Cite this work as:
 Gaussian 09, Revision C.01,
 M. J. Frisch, G. W. Trucks, H. B. Schlegel, G. E. Scuseria, 
 M. A. Robb, J. R. Cheeseman, G. Scalmani, V. Barone, B. Mennucci, 
 G. A. Petersson, H. Nakatsuji, M. Caricato, X. Li, H. P. Hratchian, 
 A. F. Izmaylov, J. Bloino, G. Zheng, J. L. Sonnenberg, M. Hada, 
 M. Ehara, K. Toyota, R. Fukuda, J. Hasegawa, M. Ishida, T. Nakajima, 
 Y. Honda, O. Kitao, H. Nakai, T. Vreven, J. A. Montgomery, Jr., 
 J. E. Peralta, F. Ogliaro, M. Bearpark, J. J. Heyd, E. Brothers, 
 K. N. Kudin, V. N. Staroverov, T. Keith, R. Kobayashi, J. Normand, 
 K. Raghavachari, A. Rendell, J. C. Burant, S. S. Iyengar, J. Tomasi, 
 M. Cossi, N. Rega, J. M. Millam, M. Klene, J. E. Knox, J. B. Cross, 
 V. Bakken, C. Adamo, J. Jaramillo, R. Gomperts, R. E. Stratmann, 
 O. Yazyev, A. J. Austin, R. Cammi, C. Pomelli, J. W. Ochterski, 
 R. L. Martin, K. Morokuma, V. G. Zakrzewski, G. A. Voth, 
 P. Salvador, J. J. Dannenberg, S. Dapprich, A. D. Daniels, 
 O. Farkas, J. B. Foresman, J. V. Ortiz, J. Cioslowski, 
 and D. J. Fox, Gaussian, Inc., Wallingford CT, 2010.
 
 ******************************************
 Gaussian 09:  EM64L-G09RevC.01 23-Sep-2011
                15-Apr-2015 
 ******************************************
 %nprocs=8
 Will use up to    8 processors via shared memory.
 %mem=1000MW
 %chk=t1-freq.chk
 --------------------------------------------------------
 #P Geom=AllCheck Freq=(ReadFC,FC,SaveNM,ReadFCHT) NoSymm
 --------------------------------------------------------
 1/29=7,38=1/1;
 2/12=2,15=1,40=1/2;
 7/8=1,25=11,30=1,71=10,72=1,92=1/16;
 99/5=2,8=110000/99;
 Leave Link    1 at Wed Apr 15 09:56:23 2015, MaxMem= 1048576000 cpu:       0.9
 (Enter /usr/soft/chemie/g09/l101.exe)
 Structure from the checkpoint file:  t1-freq.chk
 -------------------------
 acrolein test BLYP opt S0
 -------------------------
 Charge =  0 Multiplicity = 3
 No Z-Matrix found in file; cartesian coordinates used.
  O                                                -1.900235000000     -0.167316000000      0.000034000000
  C                                                 1.830464000000      0.160063000000      0.000006000000
  C                                                 0.556890000000     -0.401155000000     -0.000020000000
  C                                                -0.646364000000      0.339148000000     -0.000050000000
  H                                                -0.646501000000      1.443697000000      0.000013000000
  H                                                 0.450083000000     -1.490964000000      0.000003000000
  H                                                 2.716299000000     -0.476218000000      0.000012000000
  H                                                 1.991132000000      1.240866000000      0.000004000000
 Recover connectivity data from disk.
 NAtoms=      8 NQM=        0 NQMF=       0 NMMI=      8 NMMIF=      0
                NMic=       0 NMicF=      0.
                    Isotopes and Nuclear Properties:
 (Nuclear quadrupole moments (NQMom) in fm**2, nuclear magnetic moments (NMagM)
  in nuclear magnetons)

  Atom         1           2           3           4           5           6           7           8
 IAtWgt=          16          12          12          12           1           1           1           1
 AtmWgt=  15.9949146  12.0000000  12.0000000  12.0000000   1.0078250   1.0078250   1.0078250   1.0078250
 NucSpn=           0           0           0           0           1           1           1           1
 AtZEff=  -5.6000000  -3.6000000  -3.6000000  -3.6000000  -1.0000000  -1.0000000  -1.0000000  -1.0000000
 NQMom=    0.0000000   0.0000000   0.0000000   0.0000000   0.0000000   0.0000000   0.0000000   0.0000000
 NMagM=    0.0000000   0.0000000   0.0000000   0.0000000   2.7928460   2.7928460   2.7928460   2.7928460
 Leave Link  101 at Wed Apr 15 09:56:23 2015, MaxMem= 1048576000 cpu:       0.9
 (Enter /usr/soft/chemie/g09/l202.exe)
                          Input orientation:                          
 ---------------------------------------------------------------------
 Center     Atomic      Atomic             Coordinates (Angstroms)
 Number     Number       Type             X           Y           Z
 ---------------------------------------------------------------------
      1          8           0       -1.900235   -0.167316    0.000034
      2          6           0        1.830464    0.160063    0.000006
      3          6           0        0.556890   -0.401155   -0.000020
      4          6           0       -0.646364    0.339148   -0.000050
      5          1           0       -0.646501    1.443697    0.000013
      6          1           0        0.450083   -1.490964    0.000003
      7          1           0        2.716299   -0.476218    0.000012
      8          1           0        1.991132    1.240866    0.000004
 ---------------------------------------------------------------------
                    Distance matrix (angstroms):
                    1          2          3          4          5
     1  O    0.000000
     2  C    3.745036   0.000000
     3  C    2.468227   1.391746   0.000000
     4  C    1.352294   2.483294   1.412752   0.000000
     5  H    2.041375   2.789816   2.202641   1.104549   0.000000
     6  H    2.697413   2.152055   1.095030   2.133426   3.132847
     7  H    4.626857   1.090668   2.160713   3.460105   3.872273
     8  H    4.138323   1.092680   2.180203   2.787379   2.645420
                    6          7          8
     6  H    0.000000
     7  H    2.483031   0.000000
     8  H    3.136515   1.863933   0.000000
 Symmetry turned off by external request.
 Stoichiometry    C3H4O(3)
 Framework group  C1[X(C3H4O)]
 Deg. of freedom    18
 Full point group                 C1      NOp   1
 Rotational constants (GHZ):     50.0120921      4.2688116      3.9330996
 Leave Link  202 at Wed Apr 15 09:56:23 2015, MaxMem= 1048576000 cpu:       0.0
 (Enter /usr/soft/chemie/g09/l716.exe)
 Electric field and nuclear coordinate derivatives read from checkpoint file.
 Dipole        = 3.49006434D-01 2.61149997D-01-6.61979929D-05
 Polarizability= 6.37876315D+01 1.17919580D+00 3.21832532D+01
                 2.73076244D-01-4.93138422D-02 1.11957682D+01
 Full mass-weighted force constant matrix:
 Low frequencies ---   -0.0001    0.0008    0.0011    6.6103   10.4283   21.4651
 Low frequencies ---  265.0750  292.1139  480.1486
 Harmonic frequencies (cm**-1), IR intensities (KM/Mole), Raman scattering
 activities (A**4/AMU), depolarization ratios for plane and unpolarized
 incident light, reduced masses (AMU), force constants (mDyne/A),
 and normal coordinates:
                     1                      2                      3
                     A                      A                      A
 Frequencies --   265.0741               292.1131               480.1486
 Red. masses --     3.1010                 3.4459                 4.0234
 Frc consts  --     0.1284                 0.1732                 0.5465
 IR Inten    --     2.8216                 4.6482                 2.5575
  Atom  AN      X      Y      Z        X      Y      Z        X      Y      Z
     1   8     0.00   0.00   0.21    -0.09   0.21   0.00     0.27  -0.05   0.00
     2   6     0.00   0.00   0.17    -0.06   0.16   0.00    -0.28   0.01   0.00
     3   6     0.00   0.00  -0.21     0.09  -0.21   0.00    -0.14  -0.17   0.00
     4   6     0.00   0.00  -0.23     0.07  -0.25   0.00     0.12   0.19   0.00
     5   1     0.00   0.00  -0.56     0.30  -0.23   0.00     0.29   0.16   0.00
     6   1     0.00   0.00  -0.39     0.28  -0.23   0.00    -0.28  -0.14   0.00
     7   1     0.00   0.00   0.40     0.17   0.49   0.00    -0.07   0.31   0.00
     8   1     0.00   0.00   0.45    -0.46   0.22   0.00    -0.66   0.07   0.00
                     4                      5                      6
                     A                      A                      A
 Frequencies --   531.6452               725.5198               802.6614
 Red. masses --     1.0752                 1.8646                 1.3251
 Frc consts  --     0.1791                 0.5783                 0.5030
 IR Inten    --    24.5344                39.7023                49.5168
  Atom  AN      X      Y      Z        X      Y      Z        X      Y      Z
     1   8     0.00   0.00   0.01     0.00   0.00  -0.02     0.00   0.00   0.02
     2   6     0.00   0.00   0.01     0.00   0.00   0.17     0.00   0.00   0.08
     3   6     0.00   0.00  -0.07     0.00   0.00  -0.18     0.00   0.00   0.11
     4   6     0.00   0.00  -0.02     0.00   0.00   0.13     0.00   0.00  -0.10
     5   1     0.00   0.00   0.55     0.00   0.00  -0.41     0.00   0.00   0.21
     6   1     0.00   0.00   0.10     0.00   0.00   0.33     0.00   0.00  -0.69
     7   1     0.00   0.00   0.67     0.00   0.00  -0.40     0.00   0.00  -0.38
     8   1     0.00   0.00  -0.48     0.00   0.00  -0.69     0.00   0.00  -0.56
                     7                      8                      9
                     A                      A                      A
 Frequencies --   911.9870              1077.0176              1190.3594
 Red. masses --     2.0029                 1.8169                 1.3067
 Frc consts  --     0.9815                 1.2417                 1.0909
 IR Inten    --     4.0122                28.7619                 1.9444
  Atom  AN      X      Y      Z        X      Y      Z        X      Y      Z
     1   8     0.13   0.05   0.00    -0.12  -0.07   0.00     0.01  -0.02   0.00
     2   6    -0.12   0.08   0.00    -0.04   0.08   0.00     0.08   0.00   0.00
     3   6    -0.07   0.08   0.00     0.05  -0.11   0.00    -0.09   0.07   0.00
     4   6     0.00  -0.17   0.00     0.06   0.15   0.00    -0.06  -0.06   0.00
     5   1     0.14  -0.16   0.00     0.67   0.12   0.00     0.88  -0.06   0.01
     6   1     0.18   0.06   0.00     0.40  -0.14   0.00    -0.34   0.09   0.01
     7   1    -0.54  -0.51   0.00    -0.27  -0.26   0.00     0.21   0.17   0.00
     8   1     0.53  -0.03   0.00     0.40   0.01   0.00    -0.04   0.03   0.00
                    10                     11                     12
                     A                      A                      A
 Frequencies --  1248.2956              1271.8819              1406.3130
 Red. masses --     2.5635                 2.8284                 1.7431
 Frc consts  --     2.3535                 2.6958                 2.0311
 IR Inten    --    13.5065                 4.4745                 2.5364
  Atom  AN      X      Y      Z        X      Y      Z        X      Y      Z
     1   8     0.07   0.03   0.00    -0.13  -0.04   0.00     0.00   0.00   0.00
     2   6     0.14   0.16   0.00     0.02   0.08   0.00    -0.05   0.03   0.00
     3   6    -0.09  -0.24   0.00    -0.11   0.03   0.00     0.24  -0.01   0.00
     4   6    -0.14   0.04   0.00     0.35  -0.05   0.00    -0.09   0.00   0.00
     5   1    -0.32   0.05   0.01    -0.22  -0.08   0.00     0.13   0.01  -0.01
     6   1    -0.49  -0.22   0.01    -0.85   0.10   0.00    -0.77   0.08  -0.01
     7   1     0.10   0.04  -0.01    -0.10  -0.08   0.00    -0.35  -0.36   0.01
     8   1     0.67   0.09   0.00     0.16   0.06   0.00    -0.25   0.04   0.00
                    13                     14                     15
                     A                      A                      A
 Frequencies --  1500.5400              2496.4566              2985.1819
 Red. masses --     1.4203                 1.2741                 1.0763
 Frc consts  --     1.8842                 4.6784                 5.6511
 IR Inten    --    11.5603               126.7763                 4.4449
  Atom  AN      X      Y      Z        X      Y      Z        X      Y      Z
     1   8     0.01   0.00   0.00     0.00   0.00  -0.03     0.00   0.00   0.00
     2   6     0.16   0.06   0.00     0.00   0.00  -0.06     0.00   0.00   0.00
     3   6    -0.10  -0.03   0.00     0.00   0.00   0.03     0.00   0.00   0.00
     4   6     0.00   0.01   0.00     0.00   0.00   0.14     0.00   0.08   0.00
     5   1    -0.03   0.01   0.01     0.01   0.00  -0.56    -0.02  -1.00   0.00
     6   1     0.19  -0.06   0.01     0.00   0.00  -0.60     0.00   0.03   0.00
     7   1    -0.31  -0.58  -0.01     0.01   0.00   0.52     0.02  -0.01   0.00
     8   1    -0.68   0.18   0.00     0.00   0.01  -0.17     0.00   0.01   0.00
                    16                     17                     18
                     A                      A                      A
 Frequencies --  3099.2170              3104.7839              3195.2209
 Red. masses --     1.0577                 1.0850                 1.1151
 Frc consts  --     5.9855                 6.1621                 6.7077
 IR Inten    --    10.2815                 1.1506                15.2949
  Atom  AN      X      Y      Z        X      Y      Z        X      Y      Z
     1   8     0.00   0.00   0.00     0.00   0.00   0.00     0.00   0.00   0.00
     2   6    -0.05  -0.03   0.00     0.02   0.03   0.00    -0.05   0.09   0.00
     3   6     0.00  -0.04   0.00    -0.01  -0.08   0.00     0.00   0.01   0.00
     4   6     0.00   0.00   0.00     0.00   0.00   0.00     0.00   0.00   0.00
     5   1     0.00   0.03   0.00     0.00   0.02   0.00     0.00   0.00   0.00
     6   1     0.04   0.45   0.00     0.08   0.87   0.00    -0.01  -0.11   0.00
     7   1     0.47  -0.36   0.00    -0.17   0.13   0.00     0.64  -0.45   0.00
     8   1     0.09   0.66   0.00    -0.06  -0.42   0.00    -0.10  -0.60   0.00

 -------------------
 - Thermochemistry -
 -------------------
 Temperature   298.150 Kelvin.  Pressure   1.00000 Atm.
 Atom     1 has atomic number  8 and mass  15.99491
 Atom     2 has atomic number  6 and mass  12.00000
 Atom     3 has atomic number  6 and mass  12.00000
 Atom     4 has atomic number  6 and mass  12.00000
 Atom     5 has atomic number  1 and mass   1.00783
 Atom     6 has atomic number  1 and mass   1.00783
 Atom     7 has atomic number  1 and mass   1.00783
 Atom     8 has atomic number  1 and mass   1.00783
 Molecular mass:    56.02621 amu.
 Principal axes and moments of inertia in atomic units:
                           1         2         3
     Eigenvalues --    36.08610 422.77368 458.85978
           X            0.99967  -0.02578   0.00000
           Y            0.02578   0.99967   0.00002
           Z           -0.00001  -0.00002   1.00000
 This molecule is an asymmetric top.
 Rotational symmetry number  1.
 Rotational temperatures (Kelvin)      2.40020     0.20487     0.18876
 Rotational constants (GHZ):          50.01209     4.26881     3.93310
 Zero-point vibrational energy     159010.1 (Joules/Mol)
                                   38.00433 (Kcal/Mol)
 Warning -- explicit consideration of   4 degrees of freedom as
           vibrations may cause significant error
 Vibrational temperatures:    381.38   420.29   690.83   764.92  1043.86
          (Kelvin)           1154.85  1312.14  1549.59  1712.66  1796.02
                             1829.95  2023.37  2158.94  3591.84  4295.01
                             4459.08  4467.09  4597.20
 
 Zero-point correction=                           0.060564 (Hartree/Particle)
 Thermal correction to Energy=                    0.065048
 Thermal correction to Enthalpy=                  0.065993
 Thermal correction to Gibbs Free Energy=         0.033284
 Sum of electronic and zero-point Energies=           -191.640340
 Sum of electronic and thermal Energies=              -191.635856
 Sum of electronic and thermal Enthalpies=            -191.634912
 Sum of electronic and thermal Free Energies=         -191.667621
 
                     E (Thermal)             CV                S
                      KCal/Mol        Cal/Mol-Kelvin    Cal/Mol-Kelvin
 Total                   40.818             14.802             68.842
 Electronic               0.000              0.000              2.183
 Translational            0.889              2.981             37.991
 Rotational               0.889              2.981             23.464
 Vibrational             39.041              8.841              5.204
 Vibration     1          0.671              1.737              1.628
 Vibration     2          0.687              1.688              1.462
 Vibration     3          0.837              1.294              0.710
 Vibration     4          0.887              1.180              0.584
                       Q            Log10(Q)             Ln(Q)
 Total Bot       0.490527D-15        -15.309337        -35.251052
 Total V=0       0.353182D+13         12.547998         28.892833
 Vib (Bot)       0.331199D-27        -27.479911        -63.274834
 Vib (Bot)    1  0.730902D+00         -0.136141         -0.313476
 Vib (Bot)    2  0.653899D+00         -0.184489         -0.424803
 Vib (Bot)    3  0.348278D+00         -0.458074         -1.054754
 Vib (Bot)    4  0.300358D+00         -0.522361         -1.202781
 Vib (V=0)       0.238465D+01          0.377424          0.869052
 Vib (V=0)    1  0.138556D+01          0.141626          0.326105
 Vib (V=0)    2  0.132315D+01          0.121611          0.280019
 Vib (V=0)    3  0.110934D+01          0.045065          0.103767
 Vib (V=0)    4  0.108328D+01          0.034740          0.079993
 Electronic      0.300000D+01          0.477121          1.098612
 Translational   0.164832D+08          7.217042         16.617854
 Rotational      0.299509D+05          4.476410         10.307316

 ----------------------------------------------------------------------
 Using the following non-standard input for DiNa:
 EMISSION JIdent PRTMAT=1 SPECHWHM=50. SPECRES=10.
 --- end of non-standard input.

 ----------------------------------------------------------------------
 Harmonic vibro-rotational analysis
 ----------------------------------------------------------------------
 Asymmetric Top with C1   Symmetry
 Inertia Moments (amu-Ang**2) Ia:    10.10514 Ib:   118.38869 Ic:   128.49382
 Rotational Constants (cm-1)   a:     1.66822  b:     0.14239  c:     0.13119
 Rotational Constants (GHz)    a:    50.01209  b:     4.26881  c:     3.93310
  100 Coriolis couplings larger than .100D-02 along the X axis
  110 Coriolis couplings larger than .100D-02 along the Y axis
   91 Coriolis couplings larger than .100D-02 along the Z axis

Contributions to Zero Point Energy (cm-1)
 Watson:-0.48545D+00 Coriolis-0.49201D+01 Total-0.54056D+01
 Coriolis contributions to Xmat 
                1             2             3             4             5 
      1  0.000000D+00
      2  0.123134D-03  0.000000D+00
      3  0.281099D-03  0.552550D-04  0.000000D+00
      4  0.297046D-05  0.182411D-04  0.157904D-04  0.000000D+00
      5  0.664608D-01  0.480856D+00  0.909283D+00  0.108353D+01  0.000000D+00
      6  0.258795D+00  0.445315D-01  0.478302D-03  0.514811D-03  0.258050D+00
      7  0.739019D-01  0.154330D+00  0.156357D-01  0.987834D-02  0.144343D+00
      8  0.251519D-02  0.727588D-01  0.283044D-02  0.322482D-01  0.163316D+00
      9  0.487998D-02  0.522370D-01  0.916930D-02  0.493543D-02  0.118453D-02
     10  0.107315D-02  0.293923D-02  0.253529D-01  0.250130D+00  0.305931D-01
     11  0.382360D-04  0.320107D-03  0.117563D+00  0.706378D-01  0.752505D-01
     12  0.367673D-02  0.107139D-01  0.225828D+00  0.321516D-02  0.653637D+00
     13  0.229674D+01  0.111812D+01  0.183541D+01  0.508486D+00  0.000000D+00
     14  0.191358D+01  0.201769D+01  0.136065D+00  0.109912D+01  0.213600D-04
     15  0.170409D+00  0.177734D+01  0.195597D+01  0.283364D+01  0.119784D-03
     16  0.205322D-03  0.283611D-02  0.563543D-01  0.499072D-02  0.304170D+00
     17  0.245869D-02  0.604566D-01  0.605096D-01  0.256054D-01  0.146745D+00
     18  0.385872D+00  0.334189D+00  0.637805D-02  0.694581D+00  0.243029D-03
                6             7             8             9            10 
      6  0.000000D+00
      7  0.771373D-03  0.000000D+00
      8  0.657529D-03  0.256642D-04  0.000000D+00
      9  0.458455D-02  0.278991D-01  0.947697D-02  0.000000D+00
     10  0.196222D-02  0.281364D-02  0.673342D-02  0.206136D-01  0.000000D+00
     11  0.199382D-02  0.152209D-01  0.483217D-01  0.190548D-02  0.314580D-02
     12  0.841673D-03  0.604185D-02  0.269360D-01  0.612683D-02  0.665313D-04
     13  0.969985D-01  0.212822D+00  0.592406D-02  0.968950D-02  0.294328D-01
     14  0.309588D+00  0.125945D+00  0.274454D-01  0.406917D+00  0.118711D+00
     15  0.728009D+00  0.169427D+00  0.421187D-01  0.900887D-01  0.143321D+00
     16  0.388877D-02  0.211383D-01  0.113237D+00  0.609898D-03  0.297632D-01
     17  0.333558D-01  0.203330D-01  0.445184D-01  0.274591D+00  0.323396D-01
     18  0.437039D-02  0.427156D-01  0.330770D-01  0.141513D+01  0.170250D-01
               11            12            13            14            15 
     11  0.000000D+00
     12  0.145633D-02  0.000000D+00
     13  0.176573D-01  0.388002D+00  0.000000D+00
     14  0.461272D+00  0.649380D-02  0.000000D+00  0.000000D+00
     15  0.134036D-01  0.355530D+00  0.121418D-05  0.000000D+00  0.000000D+00
     16  0.189207D-02  0.436197D-02  0.156719D+00  0.800612D-01  0.114377D+00
     17  0.960718D-01  0.145133D-01  0.416509D-02  0.441752D-03  0.164213D+00
     18  0.299513D+00  0.227953D+00  0.174890D-05  0.000000D+00  0.000000D+00
               16            17            18 
     16  0.000000D+00
     17  0.359486D-03  0.000000D+00
     18  0.280771D-02  0.251314D+01  0.000000D+00

 Coriolis contributions to Vibro-Rot Alpha  Matrix (cm-1)
              X           Y           Z 
 Q( 1)     0.00347     0.00002     0.00004                    
 Q( 2)     0.00617     0.00000     0.00004                    
 Q( 3)     0.00756     0.00001     0.00004                    
 Q( 4)     0.01064     0.00000     0.00004                    
 Q( 5)    -0.01253     0.00004     0.00000                    
 Q( 6)     0.00173     0.00007    -0.00003                    
 Q( 7)     0.00038     0.00012     0.00003                    
 Q( 8)     0.00007    -0.00001     0.00023                    
 Q( 9)     0.00458     0.00006    -0.00002                    
 Q(10)     0.00073     0.00007    -0.00014                    
 Q(11)     0.00448     0.00004    -0.00009                    
 Q(12)     0.01359     0.00006    -0.00005                    
 Q(13)    -0.01768    -0.00018     0.00000                    
 Q(14)    -0.01347    -0.00014     0.00000                    
 Q(15)    -0.00570     0.00000     0.00000                    
 Q(16)    -0.00915    -0.00011    -0.00006                    
 Q(17)     0.30184     0.00044    -0.00015                    
 Q(18)    -0.31061    -0.00061     0.00000                    
 Average Normal Coordinates 
  <Q**2>(0)    <Q**2>(298)  <Q**2>(298) class.
  0.005276       0.005276       0.000684
  0.005430       0.005430       0.000725
  0.005439       0.005439       0.000727
  0.005647       0.005647       0.000784
  0.006753       0.006753       0.001121
  0.011234       0.011250       0.003103
  0.011987       0.012014       0.003533
  0.013254       0.013311       0.004319
  0.013505       0.013570       0.004484
  0.014162       0.014253       0.004931
  0.015652       0.015826       0.006023
  0.018485       0.018944       0.008400
  0.021002       0.021894       0.010844
  0.023235       0.024681       0.013273
  0.031708       0.036990       0.024719
  0.035109       0.042787       0.030305
  0.057709       0.095007       0.081878
  0.063596       0.112636       0.099434
 Mean Square Amplitudes of Cartesian Coords.
     Label     <(S-Se)**2>**1/2 (0)     <(S-Se)**2>**1/2 (298)
 X(1)  (Angs)        0.071489                 0.078253
 Y(1)  (Angs)        0.062151                 0.077939
 Z(2)  (Angs)        0.064442                 0.085345
 X(2)  (Angs)        0.066169                 0.070905
 Y(2)  (Angs)        0.050985                 0.059431
 Z(3)  (Angs)        0.060932                 0.073665
 X(3)  (Angs)        0.058876                 0.062329
 Y(3)  (Angs)        0.072405                 0.084346
 Z(4)  (Angs)        0.075125                 0.091033
 X(4)  (Angs)        0.058169                 0.060646
 Y(4)  (Angs)        0.079525                 0.093884
 Z(5)  (Angs)        0.073201                 0.091035
 X(5)  (Angs)        0.066110                 0.068705
 Y(5)  (Angs)        0.043767                 0.045789
 Z(6)  (Angs)        0.075088                 0.086695
 X(6)  (Angs)        0.062747                 0.065028
 Y(6)  (Angs)        0.043265                 0.045238
 Z(7)  (Angs)        0.063061                 0.069078
 X(7)  (Angs)        0.050982                 0.052065
 Y(7)  (Angs)        0.061497                 0.067663
 Z(8)  (Angs)        0.079279                 0.087612
 X(8)  (Angs)        0.071219                 0.077323
 Y(8)  (Angs)        0.041210                 0.043005
 Z(9)  (Angs)        0.078737                 0.087090
 
                    Gaussian Orientation                    
 ---------------------------------------------------------------------
 Center     Atomic                     Coordinates (Angstroms)
 Number     Number                        X           Y           Z
 ---------------------------------------------------------------------
      1          8                   -1.900235   -0.167316    0.000034
      2          6                    1.830464    0.160063    0.000006
      3          6                    0.556890   -0.401155   -0.000020
      4          6                   -0.646364    0.339148   -0.000050
      5          1                   -0.646501    1.443697    0.000013
      6          1                    0.450083   -1.490964    0.000003
      7          1                    2.716299   -0.476218    0.000012
      8          1                    1.991132    1.240866    0.000004
 ---------------------------------------------------------------------
                     Eckart Orientation                     
 ---------------------------------------------------------------------
 Center     Atomic                     Coordinates (Angstroms)
 Number     Number                        X           Y           Z
 ---------------------------------------------------------------------
      1          8                   -0.106696    0.000026   -1.815132
      2          6                    0.124395    0.000022    1.922767
      3          6                   -0.403803   -0.000020    0.635148
      4          6                    0.367274   -0.000044   -0.548621
      5          1                    1.471460    0.000037   -0.520282
      6          1                   -1.490497   -0.000014    0.500280
      7          1                   -0.534512    0.000022    2.791904
      8          1                    1.200696    0.000038    2.111245
 ---------------------------------------------------------------------

 **********************************************************************

             Generation of the Franck-Condon spectrum

 **********************************************************************

 Approx. of the electronic transition dipole moment: FC
 Type of transition requested: ONE-PHOTON EMISSION

 Data for initial state taken from current calculation.
 Passed-in normal modes used.
 Data for   final state taken from checkpoint file "s0-freq.chk"
 Normal modes recovered from file.

 No electronic transition dipole moment has been found.
 A fully-allowed transition is assumed for FC calculations.
 Using excited electronic state number  0.
 WARNING: Multiplicity is different between initial and final state.
          Gaussian will assume that the transition is fully-allowed for
          the FC calculations.

 Initial state structure is set in Eckart orientation.
 Final state structure is superposed to it.
              New orientation in initial state              
 ---------------------------------------------------------------------
 Center     Atomic                     Coordinates (Angstroms)
 Number     Number                        X           Y           Z
 ---------------------------------------------------------------------
      1          8                   -1.811778   -0.153456    0.000037
      2          6                    1.918921    0.173923    0.000009
      3          6                    0.645347   -0.387295   -0.000017
      4          6                   -0.557907    0.353008   -0.000047
      5          1                   -0.558044    1.457557    0.000016
      6          1                    0.538540   -1.477104    0.000006
      7          1                    2.804756   -0.462358    0.000015
      8          1                    2.079589    1.254726    0.000007
 ---------------------------------------------------------------------
               New orientation in final state               
 ---------------------------------------------------------------------
 Center     Atomic                     Coordinates (Angstroms)
 Number     Number                        X           Y           Z
 ---------------------------------------------------------------------
      1          8                   -1.747160   -0.139954    0.000010
      2          6                    1.866531    0.176644   -0.000011
      3          6                    0.652268   -0.423777    0.000003
      4          6                   -0.597025    0.363320   -0.000003
      5          1                   -0.456980    1.472136   -0.000020
      6          1                    0.543427   -1.512872    0.000020
      7          1                    2.800362   -0.389827   -0.000007
      8          1                    1.959656    1.268323   -0.000028
 ---------------------------------------------------------------------

 --------------------------------------------------
    Printing matrices as requested
 --------------------------------------------------

   Duschinsky Matrix
  ------------------------------
                 1             2             3             4             5 
      1   0.100000D+01  0.000000D+00  0.000000D+00  0.000000D+00  0.000000D+00
      2   0.000000D+00  0.100000D+01  0.000000D+00  0.000000D+00  0.000000D+00
      3   0.000000D+00  0.000000D+00  0.100000D+01  0.000000D+00  0.000000D+00
      4   0.000000D+00  0.000000D+00  0.000000D+00  0.100000D+01  0.000000D+00
      5   0.000000D+00  0.000000D+00  0.000000D+00  0.000000D+00  0.100000D+01
      6   0.000000D+00  0.000000D+00  0.000000D+00  0.000000D+00  0.000000D+00
      7   0.000000D+00  0.000000D+00  0.000000D+00  0.000000D+00  0.000000D+00
      8   0.000000D+00  0.000000D+00  0.000000D+00  0.000000D+00  0.000000D+00
      9   0.000000D+00  0.000000D+00  0.000000D+00  0.000000D+00  0.000000D+00
     10   0.000000D+00  0.000000D+00  0.000000D+00  0.000000D+00  0.000000D+00
     11   0.000000D+00  0.000000D+00  0.000000D+00  0.000000D+00  0.000000D+00
     12   0.000000D+00  0.000000D+00  0.000000D+00  0.000000D+00  0.000000D+00
     13   0.000000D+00  0.000000D+00  0.000000D+00  0.000000D+00  0.000000D+00
     14   0.000000D+00  0.000000D+00  0.000000D+00  0.000000D+00  0.000000D+00
     15   0.000000D+00  0.000000D+00  0.000000D+00  0.000000D+00  0.000000D+00
     16   0.000000D+00  0.000000D+00  0.000000D+00  0.000000D+00  0.000000D+00
     17   0.000000D+00  0.000000D+00  0.000000D+00  0.000000D+00  0.000000D+00
     18   0.000000D+00  0.000000D+00  0.000000D+00  0.000000D+00  0.000000D+00
                 6             7             8             9            10 
      1   0.000000D+00  0.000000D+00  0.000000D+00  0.000000D+00  0.000000D+00
      2   0.000000D+00  0.000000D+00  0.000000D+00  0.000000D+00  0.000000D+00
      3   0.000000D+00  0.000000D+00  0.000000D+00  0.000000D+00  0.000000D+00
      4   0.000000D+00  0.000000D+00  0.000000D+00  0.000000D+00  0.000000D+00
      5   0.000000D+00  0.000000D+00  0.000000D+00  0.000000D+00  0.000000D+00
      6   0.100000D+01  0.000000D+00  0.000000D+00  0.000000D+00  0.000000D+00
      7   0.000000D+00  0.100000D+01  0.000000D+00  0.000000D+00  0.000000D+00
      8   0.000000D+00  0.000000D+00  0.100000D+01  0.000000D+00  0.000000D+00
      9   0.000000D+00  0.000000D+00  0.000000D+00  0.100000D+01  0.000000D+00
     10   0.000000D+00  0.000000D+00  0.000000D+00  0.000000D+00  0.100000D+01
     11   0.000000D+00  0.000000D+00  0.000000D+00  0.000000D+00  0.000000D+00
     12   0.000000D+00  0.000000D+00  0.000000D+00  0.000000D+00  0.000000D+00
     13   0.000000D+00  0.000000D+00  0.000000D+00  0.000000D+00  0.000000D+00
     14   0.000000D+00  0.000000D+00  0.000000D+00  0.000000D+00  0.000000D+00
     15   0.000000D+00  0.000000D+00  0.000000D+00  0.000000D+00  0.000000D+00
     16   0.000000D+00  0.000000D+00  0.000000D+00  0.000000D+00  0.000000D+00
     17   0.000000D+00  0.000000D+00  0.000000D+00  0.000000D+00  0.000000D+00
     18   0.000000D+00  0.000000D+00  0.000000D+00  0.000000D+00  0.000000D+00
                11            12            13            14            15 
      1   0.000000D+00  0.000000D+00  0.000000D+00  0.000000D+00  0.000000D+00
      2   0.000000D+00  0.000000D+00  0.000000D+00  0.000000D+00  0.000000D+00
      3   0.000000D+00  0.000000D+00  0.000000D+00  0.000000D+00  0.000000D+00
      4   0.000000D+00  0.000000D+00  0.000000D+00  0.000000D+00  0.000000D+00
      5   0.000000D+00  0.000000D+00  0.000000D+00  0.000000D+00  0.000000D+00
      6   0.000000D+00  0.000000D+00  0.000000D+00  0.000000D+00  0.000000D+00
      7   0.000000D+00  0.000000D+00  0.000000D+00  0.000000D+00  0.000000D+00
      8   0.000000D+00  0.000000D+00  0.000000D+00  0.000000D+00  0.000000D+00
      9   0.000000D+00  0.000000D+00  0.000000D+00  0.000000D+00  0.000000D+00
     10   0.000000D+00  0.000000D+00  0.000000D+00  0.000000D+00  0.000000D+00
     11   0.100000D+01  0.000000D+00  0.000000D+00  0.000000D+00  0.000000D+00
     12   0.000000D+00  0.100000D+01  0.000000D+00  0.000000D+00  0.000000D+00
     13   0.000000D+00  0.000000D+00  0.100000D+01  0.000000D+00  0.000000D+00
     14   0.000000D+00  0.000000D+00  0.000000D+00  0.100000D+01  0.000000D+00
     15   0.000000D+00  0.000000D+00  0.000000D+00  0.000000D+00  0.100000D+01
     16   0.000000D+00  0.000000D+00  0.000000D+00  0.000000D+00  0.000000D+00
     17   0.000000D+00  0.000000D+00  0.000000D+00  0.000000D+00  0.000000D+00
     18   0.000000D+00  0.000000D+00  0.000000D+00  0.000000D+00  0.000000D+00
                16            17            18 
      1   0.000000D+00  0.000000D+00  0.000000D+00
      2   0.000000D+00  0.000000D+00  0.000000D+00
      3   0.000000D+00  0.000000D+00  0.000000D+00
      4   0.000000D+00  0.000000D+00  0.000000D+00
      5   0.000000D+00  0.000000D+00  0.000000D+00
      6   0.000000D+00  0.000000D+00  0.000000D+00
      7   0.000000D+00  0.000000D+00  0.000000D+00
      8   0.000000D+00  0.000000D+00  0.000000D+00
      9   0.000000D+00  0.000000D+00  0.000000D+00
     10   0.000000D+00  0.000000D+00  0.000000D+00
     11   0.000000D+00  0.000000D+00  0.000000D+00
     12   0.000000D+00  0.000000D+00  0.000000D+00
     13   0.000000D+00  0.000000D+00  0.000000D+00
     14   0.000000D+00  0.000000D+00  0.000000D+00
     15   0.000000D+00  0.000000D+00  0.000000D+00
     16   0.100000D+01  0.000000D+00  0.000000D+00
     17   0.000000D+00  0.100000D+01  0.000000D+00
     18   0.000000D+00  0.000000D+00  0.100000D+01

 --------------------------------------------------
    Overlap integrals computation
 --------------------------------------------------

 Energy of the 0-0 transition:  21314.6143 cm^(-1)

 Notes about the overlap integrals description:
  - DeltaE is the relative energy of the transition (wrt 0-0)
  - FCI is the Franck-Condon Integral
  - Intensity is the line intensity (absolute value)

 -- To: vibronic fundamental state --

Initial State: <0|
Final State: |0>
     DeltaE =     0.0000 | TDMI**2 = 0.1120    , Intensity =  353.8    
   ........................................
  --------------------
 ++ Spectrum progression:  11.20%

 -- To: single overtones --

Initial State: <0|
Final State: |3^1>
     DeltaE =  -558.9017 | TDMI**2 = 0.7198E-01, Intensity =  204.4    
   ........................................
  --------------------
 ++ Spectrum progression:  49.25%

 -- To: combinations of  2 simultaneously excited modes --

  --------------------
 ++ Spectrum progression:  86.31%

 -- To: combinations of  3 simultaneously excited modes --

  --------------------
 ++ Spectrum progression:  98.06%

 -- To: combinations of  4 simultaneously excited modes --

  --------------------
 ++ Spectrum progression:  99.84%

 -- To: combinations of  5 simultaneously excited modes --

  --------------------
 ++ Spectrum progression:  99.99%

 -- To: combinations of  6 simultaneously excited modes --

  --------------------
 ++ Spectrum progression: 100.00%

 -- To: combinations of  7 simultaneously excited modes --

  --------------------
 ++ Spectrum progression: 100.00%


 +------------------+
 |  Final Spectrum  |
 +------------------+

 Axis X = Energy (in cm^-1)
 Axis Y = Emitted intensity by second (in microJ.mol^-1)

 ------------------------------------------------------------
       20314.6143        0.231608D+02
       20324.6143        0.214532D+02
       20334.6143        0.194120D+02
       20344.6143        0.171879D+02
       20354.6143        0.150101D+02
       20364.6143        0.131014D+02
       20374.6143        0.116134D+02
       20384.6143        0.105905D+02
       20394.6143        0.999123D+01
       20404.6143        0.967956D+01
       20414.6143        0.949211D+01
       20424.6143        0.926743D+01
       20434.6143        0.887949D+01
       20444.6143        0.825932D+01
       20454.6143        0.740198D+01
       20464.6143        0.635897D+01
       20474.6143        0.521917D+01
       20484.6143        0.408356D+01
       20494.6143        0.304231D+01
       20504.6143        0.216295D+01
       20514.6143        0.147157D+01
       20524.6143        0.968090D+00
       20534.6143        0.630319D+00
       20544.6143        0.424976D+00
       20554.6143        0.317157D+00
       20564.6143        0.275845D+00
       20574.6143        0.280208D+00
       20584.6143        0.374981D+00
       20594.6143        0.522153D+00
       20604.6143        0.805188D+00
       20614.6143        0.134542D+01
       20624.6143        0.236788D+01
       20634.6143        0.423650D+01
       20644.6143        0.750698D+01
       20654.6143        0.129410D+02
       20664.6143        0.214628D+02
       20674.6143        0.340198D+02
       20684.6143        0.513322D+02
       20694.6143        0.735590D+02
       20704.6143        0.999651D+02
       20714.6143        0.128719D+03
       20724.6143        0.156958D+03
       20734.6143        0.181182D+03
       20744.6143        0.197944D+03
       20754.6143        0.204647D+03
       20764.6143        0.200199D+03
       20774.6143        0.185306D+03
       20784.6143        0.162281D+03
       20794.6143        0.134462D+03
       20804.6143        0.105412D+03
       20814.6143        0.781981D+02
       20824.6143        0.549168D+02
       20834.6143        0.365532D+02
       20844.6143        0.231428D+02
       20854.6143        0.140835D+02
       20864.6143        0.848060D+01
       20874.6143        0.541831D+01
       20884.6143        0.412118D+01
       20894.6143        0.400976D+01
       20904.6143        0.468546D+01
       20914.6143        0.588158D+01
       20924.6143        0.740942D+01
       20934.6143        0.908600D+01
       20944.6143        0.108393D+02
       20954.6143        0.124576D+02
       20964.6143        0.137910D+02
       20974.6143        0.146936D+02
       20984.6143        0.150470D+02
       20994.6143        0.147854D+02
       21004.6143        0.139148D+02
       21014.6143        0.125189D+02
       21024.6143        0.107482D+02
       21034.6143        0.879211D+01
       21044.6143        0.684284D+01
       21054.6143        0.506130D+01
       21064.6143        0.355430D+01
       21074.6143        0.236797D+01
       21084.6143        0.149576D+01
       21094.6143        0.895366D+00
       21104.6143        0.507730D+00
       21114.6143        0.272673D+00
       21124.6143        0.137540D+00
       21134.6143        0.663540D-01
       21144.6143        0.147491D+00
       21154.6143        0.305688D+00
       21164.6143        0.696449D+00
       21174.6143        0.154429D+01
       21184.6143        0.326464D+01
       21194.6143        0.652924D+01
       21204.6143        0.123541D+02
       21214.6143        0.221144D+02
       21224.6143        0.374504D+02
       21234.6143        0.600008D+02
       21244.6143        0.909443D+02
       21254.6143        0.130410D+03
       21264.6143        0.176915D+03
       21274.6143        0.227057D+03
       21284.6143        0.275691D+03
       21294.6143        0.316686D+03
       21304.6143        0.344154D+03
       21314.6143        0.353830D+03
       21324.6143        0.344154D+03
       21334.6143        0.316686D+03
       21344.6143        0.275691D+03
       21354.6143        0.227057D+03
       21364.6143        0.176915D+03
       21374.6143        0.130410D+03
       21384.6143        0.909443D+02
       21394.6143        0.600008D+02
       21404.6143        0.374504D+02
       21414.6143        0.221143D+02
       21424.6143        0.123540D+02
       21434.6143        0.652922D+01
       21444.6143        0.326461D+01
       21454.6143        0.154425D+01
       21464.6143        0.691073D+00
       21474.6143        0.292582D+00
       21484.6143        0.117189D+00
       21494.6143        0.000000D+00
       21504.6143        0.000000D+00
       21514.6143        0.000000D+00
       21524.6143        0.000000D+00
       21534.6143        0.000000D+00
       21544.6143        0.000000D+00
       21554.6143        0.000000D+00
       21564.6143        0.000000D+00
       21574.6143        0.000000D+00
       21584.6143        0.000000D+00
       21594.6143        0.000000D+00
       21604.6143        0.000000D+00
       21614.6143        0.000000D+00
       21624.6143        0.000000D+00
       21634.6143        0.000000D+00
       21644.6143        0.000000D+00
       21654.6143        0.000000D+00
       21664.6143        0.000000D+00
       21674.6143        0.000000D+00
       21684.6143        0.000000D+00
       21694.6143        0.000000D+00
       21704.6143        0.000000D+00
       21714.6143        0.000000D+00
       21724.6143        0.000000D+00
       21734.6143        0.000000D+00
       21744.6143        0.000000D+00
       21754.6143        0.000000D+00
       21764.6143        0.000000D+00
       21774.6143        0.000000D+00
       21784.6143        0.000000D+00
       21794.6143        0.000000D+00
       21804.6143        0.000000D+00
       21814.6143        0.000000D+00
       21824.6143        0.000000D+00
       21834.6143        0.000000D+00
       21844.6143        0.000000D+00
       21854.6143        0.000000D+00
       21864.6143        0.000000D+00
       21874.6143        0.000000D+00
       21884.6143        0.000000D+00
       21894.6143        0.000000D+00
       21904.6143        0.000000D+00
       21914.6143        0.000000D+00
       21924.6143        0.000000D+00
       21934.6143        0.000000D+00
       21944.6143        0.000000D+00
       21954.6143        0.000000D+00
       21964.6143        0.000000D+00
       21974.6143        0.000000D+00
       21984.6143        0.000000D+00
       21994.6143        0.000000D+00
       22004.6143        0.000000D+00
       22014.6143        0.000000D+00
       22024.6143        0.000000D+00
       22034.6143        0.000000D+00
       22044.6143        0.000000D+00
       22054.6143        0.000000D+00
       22064.6143        0.000000D+00
       22074.6143        0.000000D+00
       22084.6143        0.000000D+00
       22094.6143        0.000000D+00
       22104.6143        0.000000D+00
       22114.6143        0.000000D+00
       22124.6143        0.000000D+00
       22134.6143        0.000000D+00
       22144.6143        0.000000D+00
       22154.6143        0.000000D+00
       22164.6143        0.000000D+00
       22174.6143        0.000000D+00
       22184.6143        0.000000D+00
       22194.6143        0.000000D+00
       22204.6143        0.000000D+00
       22214.6143        0.000000D+00
       22224.6143        0.000000D+00
       22234.6143        0.000000D+00
       22244.6143        0.000000D+00
       22254.6143        0.000000D+00
       22264.6143        0.000000D+00
       22274.6143        0.000000D+00
       22284.6143        0.000000D+00
       22294.6143        0.000000D+00
       22304.6143        0.000000D+00
       22314.6143        0.000000D+00
       22324.6143        0.000000D+00
       22334.6143        0.000000D+00
       22344.6143        0.000000D+00
       22354.6143        0.000000D+00
       22364.6143        0.000000D+00
       22374.6143        0.000000D+00
       22384.6143        0.000000D+00
       22394.6143        0.000000D+00
       22404.6143        0.000000D+00
       22414.6143        0.000000D+00
       22424.6143        0.000000D+00
       22434.6143        0.000000D+00
       22444.6143        0.000000D+00
       22454.6143        0.000000D+00
       22464.6143        0.000000D+00
       22474.6143        0.000000D+00
       22484.6143        0.000000D+00
       22494.6143        0.000000D+00
       22504.6143        0.000000D+00
       22514.6143        0.000000D+00
       22524.6143        0.000000D+00
       22534.6143        0.000000D+00
       22544.6143        0.000000D+00
       22554.6143        0.000000D+00
       22564.6143        0.000000D+00
       22574.6143        0.000000D+00
       22584.6143        0.000000D+00
       22594.6143        0.000000D+00
       22604.6143        0.000000D+00
       22614.6143        0.000000D+00
       22624.6143        0.000000D+00
       22634.6143        0.000000D+00
       22644.6143        0.000000D+00
       22654.6143        0.000000D+00
       22664.6143        0.000000D+00
       22674.6143        0.000000D+00
       22684.6143        0.000000D+00
       22694.6143        0.000000D+00
       22704.6143        0.000000D+00
       22714.6143        0.000000D+00
       22724.6143        0.000000D+00
       22734.6143        0.000000D+00
       22744.6143        0.000000D+00
       22754.6143        0.000000D+00
       22764.6143        0.000000D+00
       22774.6143        0.000000D+00
       22784.6143        0.000000D+00
       22794.6143        0.000000D+00
       22804.6143        0.000000D+00
       22814.6143        0.000000D+00
       22824.6143        0.000000D+00
       22834.6143        0.000000D+00
       22844.6143        0.000000D+00
       22854.6143        0.000000D+00
       22864.6143        0.000000D+00
       22874.6143        0.000000D+00
       22884.6143        0.000000D+00
       22894.6143        0.000000D+00
       22904.6143        0.000000D+00
       22914.6143        0.000000D+00
       22924.6143        0.000000D+00
       22934.6143        0.000000D+00
       22944.6143        0.000000D+00
       22954.6143        0.000000D+00
       22964.6143        0.000000D+00
       22974.6143        0.000000D+00
       22984.6143        0.000000D+00
       22994.6143        0.000000D+00
       23004.6143        0.000000D+00
       23014.6143        0.000000D+00
       23024.6143        0.000000D+00
       23034.6143        0.000000D+00
       23044.6143        0.000000D+00
       23054.6143        0.000000D+00
       23064.6143        0.000000D+00
       23074.6143        0.000000D+00
       23084.6143        0.000000D+00
       23094.6143        0.000000D+00
       23104.6143        0.000000D+00
       23114.6143        0.000000D+00
       23124.6143        0.000000D+00
       23134.6143        0.000000D+00
       23144.6143        0.000000D+00
       23154.6143        0.000000D+00
       23164.6143        0.000000D+00
       23174.6143        0.000000D+00
       23184.6143        0.000000D+00
       23194.6143        0.000000D+00
       23204.6143        0.000000D+00
       23214.6143        0.000000D+00
       23224.6143        0.000000D+00
       23234.6143        0.000000D+00
       23244.6143        0.000000D+00
       23254.6143        0.000000D+00
       23264.6143        0.000000D+00
       23274.6143        0.000000D+00
       23284.6143        0.000000D+00
       23294.6143        0.000000D+00
       23304.6143        0.000000D+00
       23314.6143        0.000000D+00
       23324.6143        0.000000D+00
       23334.6143        0.000000D+00
       23344.6143        0.000000D+00
       23354.6143        0.000000D+00
       23364.6143        0.000000D+00
       23374.6143        0.000000D+00
       23384.6143        0.000000D+00
       23394.6143        0.000000D+00
       23404.6143        0.000000D+00
       23414.6143        0.000000D+00
       23424.6143        0.000000D+00
       23434.6143        0.000000D+00
       23444.6143        0.000000D+00
       23454.6143        0.000000D+00
       23464.6143        0.000000D+00
       23474.6143        0.000000D+00
       23484.6143        0.000000D+00
       23494.6143        0.000000D+00
       23504.6143        0.000000D+00
       23514.6143        0.000000D+00
       23524.6143        0.000000D+00
       23534.6143        0.000000D+00
       23544.6143        0.000000D+00
       23554.6143        0.000000D+00
       23564.6143        0.000000D+00
       23574.6143        0.000000D+00
       23584.6143        0.000000D+00
       23594.6143        0.000000D+00
       23604.6143        0.000000D+00
       23614.6143        0.000000D+00
       23624.6143        0.000000D+00
       23634.6143        0.000000D+00
       23644.6143        0.000000D+00
       23654.6143        0.000000D+00
       23664.6143        0.000000D+00
       23674.6143        0.000000D+00
       23684.6143        0.000000D+00
       23694.6143        0.000000D+00
       23704.6143        0.000000D+00
       23714.6143        0.000000D+00
       23724.6143        0.000000D+00
       23734.6143        0.000000D+00
       23744.6143        0.000000D+00
       23754.6143        0.000000D+00
       23764.6143        0.000000D+00
       23774.6143        0.000000D+00
       23784.6143        0.000000D+00
       23794.6143        0.000000D+00
       23804.6143        0.000000D+00
       23814.6143        0.000000D+00
       23824.6143        0.000000D+00
       23834.6143        0.000000D+00
       23844.6143        0.000000D+00
       23854.6143        0.000000D+00
       23864.6143        0.000000D+00
       23874.6143        0.000000D+00
       23884.6143        0.000000D+00
       23894.6143        0.000000D+00
       23904.6143        0.000000D+00
       23914.6143        0.000000D+00
       23924.6143        0.000000D+00
       23934.6143        0.000000D+00
       23944.6143        0.000000D+00
       23954.6143        0.000000D+00
       23964.6143        0.000000D+00
       23974.6143        0.000000D+00
       23984.6143        0.000000D+00
       23994.6143        0.000000D+00
       24004.6143        0.000000D+00
       24014.6143        0.000000D+00
       24024.6143        0.000000D+00
       24034.6143        0.000000D+00
       24044.6143        0.000000D+00
       24054.6143        0.000000D+00
       24064.6143        0.000000D+00
       24074.6143        0.000000D+00
       24084.6143        0.000000D+00
       24094.6143        0.000000D+00
       24104.6143        0.000000D+00
       24114.6143        0.000000D+00
       24124.6143        0.000000D+00
       24134.6143        0.000000D+00
       24144.6143        0.000000D+00
       24154.6143        0.000000D+00
       24164.6143        0.000000D+00
       24174.6143        0.000000D+00
       24184.6143        0.000000D+00
       24194.6143        0.000000D+00
       24204.6143        0.000000D+00
       24214.6143        0.000000D+00
       24224.6143        0.000000D+00
       24234.6143        0.000000D+00
       24244.6143        0.000000D+00
       24254.6143        0.000000D+00
       24264.6143        0.000000D+00
       24274.6143        0.000000D+00
       24284.6143        0.000000D+00
       24294.6143        0.000000D+00
       24304.6143        0.000000D+00
       24314.6143        0.000000D+00
       24324.6143        0.000000D+00
       24334.6143        0.000000D+00
       24344.6143        0.000000D+00
       24354.6143        0.000000D+00
       24364.6143        0.000000D+00
       24374.6143        0.000000D+00
       24384.6143        0.000000D+00
       24394.6143        0.000000D+00
       24404.6143        0.000000D+00
       24414.6143        0.000000D+00
       24424.6143        0.000000D+00
       24434.6143        0.000000D+00
       24444.6143        0.000000D+00
       24454.6143        0.000000D+00
       24464.6143        0.000000D+00
       24474.6143        0.000000D+00
       24484.6143        0.000000D+00
       24494.6143        0.000000D+00
       24504.6143        0.000000D+00
       24514.6143        0.000000D+00
       24524.6143        0.000000D+00
       24534.6143        0.000000D+00
       24544.6143        0.000000D+00
       24554.6143        0.000000D+00
       24564.6143        0.000000D+00
       24574.6143        0.000000D+00
       24584.6143        0.000000D+00
       24594.6143        0.000000D+00
       24604.6143        0.000000D+00
       24614.6143        0.000000D+00
       24624.6143        0.000000D+00
       24634.6143        0.000000D+00
       24644.6143        0.000000D+00
       24654.6143        0.000000D+00
       24664.6143        0.000000D+00
       24674.6143        0.000000D+00
       24684.6143        0.000000D+00
       24694.6143        0.000000D+00
       24704.6143        0.000000D+00
       24714.6143        0.000000D+00
       24724.6143        0.000000D+00
       24734.6143        0.000000D+00
       24744.6143        0.000000D+00
       24754.6143        0.000000D+00
       24764.6143        0.000000D+00
       24774.6143        0.000000D+00
       24784.6143        0.000000D+00
       24794.6143        0.000000D+00
       24804.6143        0.000000D+00
       24814.6143        0.000000D+00
       24824.6143        0.000000D+00
       24834.6143        0.000000D+00
       24844.6143        0.000000D+00
       24854.6143        0.000000D+00
       24864.6143        0.000000D+00
       24874.6143        0.000000D+00
       24884.6143        0.000000D+00
       24894.6143        0.000000D+00
       24904.6143        0.000000D+00
       24914.6143        0.000000D+00
       24924.6143        0.000000D+00
       24934.6143        0.000000D+00
       24944.6143        0.000000D+00
       24954.6143        0.000000D+00
       24964.6143        0.000000D+00
       24974.6143        0.000000D+00
       24984.6143        0.000000D+00
       24994.6143        0.000000D+00
       25004.6143        0.000000D+00
       25014.6143        0.000000D+00
       25024.6143        0.000000D+00
       25034.6143        0.000000D+00
       25044.6143        0.000000D+00
       25054.6143        0.000000D+00
       25064.6143        0.000000D+00
       25074.6143        0.000000D+00
       25084.6143        0.000000D+00
       25094.6143        0.000000D+00
       25104.6143        0.000000D+00
       25114.6143        0.000000D+00
       25124.6143        0.000000D+00
       25134.6143        0.000000D+00
       25144.6143        0.000000D+00
       25154.6143        0.000000D+00
       25164.6143        0.000000D+00
       25174.6143        0.000000D+00
       25184.6143        0.000000D+00
       25194.6143        0.000000D+00
       25204.6143        0.000000D+00
       25214.6143        0.000000D+00
       25224.6143        0.000000D+00
       25234.6143        0.000000D+00
       25244.6143        0.000000D+00
       25254.6143        0.000000D+00
       25264.6143        0.000000D+00
       25274.6143        0.000000D+00
       25284.6143        0.000000D+00
       25294.6143        0.000000D+00
       25304.6143        0.000000D+00
       25314.6143        0.000000D+00
       25324.6143        0.000000D+00
       25334.6143        0.000000D+00
       25344.6143        0.000000D+00
       25354.6143        0.000000D+00
       25364.6143        0.000000D+00
       25374.6143        0.000000D+00
       25384.6143        0.000000D+00
       25394.6143        0.000000D+00
       25404.6143        0.000000D+00
       25414.6143        0.000000D+00
       25424.6143        0.000000D+00
       25434.6143        0.000000D+00
       25444.6143        0.000000D+00
       25454.6143        0.000000D+00
       25464.6143        0.000000D+00
       25474.6143        0.000000D+00
       25484.6143        0.000000D+00
       25494.6143        0.000000D+00
       25504.6143        0.000000D+00
       25514.6143        0.000000D+00
       25524.6143        0.000000D+00
       25534.6143        0.000000D+00
       25544.6143        0.000000D+00
       25554.6143        0.000000D+00
       25564.6143        0.000000D+00
       25574.6143        0.000000D+00
       25584.6143        0.000000D+00
       25594.6143        0.000000D+00
       25604.6143        0.000000D+00
       25614.6143        0.000000D+00
       25624.6143        0.000000D+00
       25634.6143        0.000000D+00
       25644.6143        0.000000D+00
       25654.6143        0.000000D+00
       25664.6143        0.000000D+00
       25674.6143        0.000000D+00
       25684.6143        0.000000D+00
       25694.6143        0.000000D+00
       25704.6143        0.000000D+00
       25714.6143        0.000000D+00
       25724.6143        0.000000D+00
       25734.6143        0.000000D+00
       25744.6143        0.000000D+00
       25754.6143        0.000000D+00
       25764.6143        0.000000D+00
       25774.6143        0.000000D+00
       25784.6143        0.000000D+00
       25794.6143        0.000000D+00
       25804.6143        0.000000D+00
       25814.6143        0.000000D+00
       25824.6143        0.000000D+00
       25834.6143        0.000000D+00
       25844.6143        0.000000D+00
       25854.6143        0.000000D+00
       25864.6143        0.000000D+00
       25874.6143        0.000000D+00
       25884.6143        0.000000D+00
       25894.6143        0.000000D+00
       25904.6143        0.000000D+00
       25914.6143        0.000000D+00
       25924.6143        0.000000D+00
       25934.6143        0.000000D+00
       25944.6143        0.000000D+00
       25954.6143        0.000000D+00
       25964.6143        0.000000D+00
       25974.6143        0.000000D+00
       25984.6143        0.000000D+00
       25994.6143        0.000000D+00
       26004.6143        0.000000D+00
       26014.6143        0.000000D+00
       26024.6143        0.000000D+00
       26034.6143        0.000000D+00
       26044.6143        0.000000D+00
       26054.6143        0.000000D+00
       26064.6143        0.000000D+00
       26074.6143        0.000000D+00
       26084.6143        0.000000D+00
       26094.6143        0.000000D+00
       26104.6143        0.000000D+00
       26114.6143        0.000000D+00
       26124.6143        0.000000D+00
       26134.6143        0.000000D+00
       26144.6143        0.000000D+00
       26154.6143        0.000000D+00
       26164.6143        0.000000D+00
       26174.6143        0.000000D+00
       26184.6143        0.000000D+00
       26194.6143        0.000000D+00
       26204.6143        0.000000D+00
       26214.6143        0.000000D+00
       26224.6143        0.000000D+00
       26234.6143        0.000000D+00
       26244.6143        0.000000D+00
       26254.6143        0.000000D+00
       26264.6143        0.000000D+00
       26274.6143        0.000000D+00
       26284.6143        0.000000D+00
       26294.6143        0.000000D+00
       26304.6143        0.000000D+00
       26314.6143        0.000000D+00
       26324.6143        0.000000D+00
       26334.6143        0.000000D+00
       26344.6143        0.000000D+00
       26354.6143        0.000000D+00
       26364.6143        0.000000D+00
       26374.6143        0.000000D+00
       26384.6143        0.000000D+00
       26394.6143        0.000000D+00
       26404.6143        0.000000D+00
       26414.6143        0.000000D+00
       26424.6143        0.000000D+00
       26434.6143        0.000000D+00
       26444.6143        0.000000D+00
       26454.6143        0.000000D+00
       26464.6143        0.000000D+00
       26474.6143        0.000000D+00
       26484.6143        0.000000D+00
       26494.6143        0.000000D+00
       26504.6143        0.000000D+00
       26514.6143        0.000000D+00
       26524.6143        0.000000D+00
       26534.6143        0.000000D+00
       26544.6143        0.000000D+00
       26554.6143        0.000000D+00
       26564.6143        0.000000D+00
       26574.6143        0.000000D+00
       26584.6143        0.000000D+00
       26594.6143        0.000000D+00
       26604.6143        0.000000D+00
       26614.6143        0.000000D+00
       26624.6143        0.000000D+00
       26634.6143        0.000000D+00
       26644.6143        0.000000D+00
       26654.6143        0.000000D+00
       26664.6143        0.000000D+00
       26674.6143        0.000000D+00
       26684.6143        0.000000D+00
       26694.6143        0.000000D+00
       26704.6143        0.000000D+00
       26714.6143        0.000000D+00
       26724.6143        0.000000D+00
       26734.6143        0.000000D+00
       26744.6143        0.000000D+00
       26754.6143        0.000000D+00
       26764.6143        0.000000D+00
       26774.6143        0.000000D+00
       26784.6143        0.000000D+00
       26794.6143        0.000000D+00
       26804.6143        0.000000D+00
       26814.6143        0.000000D+00
       26824.6143        0.000000D+00
       26834.6143        0.000000D+00
       26844.6143        0.000000D+00
       26854.6143        0.000000D+00
       26864.6143        0.000000D+00
       26874.6143        0.000000D+00
       26884.6143        0.000000D+00
       26894.6143        0.000000D+00
       26904.6143        0.000000D+00
       26914.6143        0.000000D+00
       26924.6143        0.000000D+00
       26934.6143        0.000000D+00
       26944.6143        0.000000D+00
       26954.6143        0.000000D+00
       26964.6143        0.000000D+00
       26974.6143        0.000000D+00
       26984.6143        0.000000D+00
       26994.6143        0.000000D+00
       27004.6143        0.000000D+00
       27014.6143        0.000000D+00
       27024.6143        0.000000D+00
       27034.6143        0.000000D+00
       27044.6143        0.000000D+00
       27054.6143        0.000000D+00
       27064.6143        0.000000D+00
       27074.6143        0.000000D+00
       27084.6143        0.000000D+00
       27094.6143        0.000000D+00
       27104.6143        0.000000D+00
       27114.6143        0.000000D+00
       27124.6143        0.000000D+00
       27134.6143        0.000000D+00
       27144.6143        0.000000D+00
       27154.6143        0.000000D+00
       27164.6143        0.000000D+00
       27174.6143        0.000000D+00
       27184.6143        0.000000D+00
       27194.6143        0.000000D+00
       27204.6143        0.000000D+00
       27214.6143        0.000000D+00
       27224.6143        0.000000D+00
       27234.6143        0.000000D+00
       27244.6143        0.000000D+00
       27254.6143        0.000000D+00
       27264.6143        0.000000D+00
       27274.6143        0.000000D+00
       27284.6143        0.000000D+00
       27294.6143        0.000000D+00
       27304.6143        0.000000D+00
       27314.6143        0.000000D+00
       27324.6143        0.000000D+00
       27334.6143        0.000000D+00
       27344.6143        0.000000D+00
       27354.6143        0.000000D+00
       27364.6143        0.000000D+00
       27374.6143        0.000000D+00
       27384.6143        0.000000D+00
       27394.6143        0.000000D+00
       27404.6143        0.000000D+00
       27414.6143        0.000000D+00
       27424.6143        0.000000D+00
       27434.6143        0.000000D+00
       27444.6143        0.000000D+00
       27454.6143        0.000000D+00
       27464.6143        0.000000D+00
       27474.6143        0.000000D+00
       27484.6143        0.000000D+00
       27494.6143        0.000000D+00
       27504.6143        0.000000D+00
       27514.6143        0.000000D+00
       27524.6143        0.000000D+00
       27534.6143        0.000000D+00
       27544.6143        0.000000D+00
       27554.6143        0.000000D+00
       27564.6143        0.000000D+00
       27574.6143        0.000000D+00
       27584.6143        0.000000D+00
       27594.6143        0.000000D+00
       27604.6143        0.000000D+00
       27614.6143        0.000000D+00
       27624.6143        0.000000D+00
       27634.6143        0.000000D+00
       27644.6143        0.000000D+00
       27654.6143        0.000000D+00
       27664.6143        0.000000D+00
       27674.6143        0.000000D+00
       27684.6143        0.000000D+00
       27694.6143        0.000000D+00
       27704.6143        0.000000D+00
       27714.6143        0.000000D+00
       27724.6143        0.000000D+00
       27734.6143        0.000000D+00
       27744.6143        0.000000D+00
       27754.6143        0.000000D+00
       27764.6143        0.000000D+00
       27774.6143        0.000000D+00
       27784.6143        0.000000D+00
       27794.6143        0.000000D+00
       27804.6143        0.000000D+00
       27814.6143        0.000000D+00
       27824.6143        0.000000D+00
       27834.6143        0.000000D+00
       27844.6143        0.000000D+00
       27854.6143        0.000000D+00
       27864.6143        0.000000D+00
       27874.6143        0.000000D+00
       27884.6143        0.000000D+00
       27894.6143        0.000000D+00
       27904.6143        0.000000D+00
       27914.6143        0.000000D+00
       27924.6143        0.000000D+00
       27934.6143        0.000000D+00
       27944.6143        0.000000D+00
       27954.6143        0.000000D+00
       27964.6143        0.000000D+00
       27974.6143        0.000000D+00
       27984.6143        0.000000D+00
       27994.6143        0.000000D+00
       28004.6143        0.000000D+00
       28014.6143        0.000000D+00
       28024.6143        0.000000D+00
       28034.6143        0.000000D+00
       28044.6143        0.000000D+00
       28054.6143        0.000000D+00
       28064.6143        0.000000D+00
       28074.6143        0.000000D+00
       28084.6143        0.000000D+00
       28094.6143        0.000000D+00
       28104.6143        0.000000D+00
       28114.6143        0.000000D+00
       28124.6143        0.000000D+00
       28134.6143        0.000000D+00
       28144.6143        0.000000D+00
       28154.6143        0.000000D+00
       28164.6143        0.000000D+00
       28174.6143        0.000000D+00
       28184.6143        0.000000D+00
       28194.6143        0.000000D+00
       28204.6143        0.000000D+00
       28214.6143        0.000000D+00
       28224.6143        0.000000D+00
       28234.6143        0.000000D+00
       28244.6143        0.000000D+00
       28254.6143        0.000000D+00
       28264.6143        0.000000D+00
       28274.6143        0.000000D+00
       28284.6143        0.000000D+00
       28294.6143        0.000000D+00
       28304.6143        0.000000D+00
       28314.6143        0.000000D+00
       28324.6143        0.000000D+00
       28334.6143        0.000000D+00
       28344.6143        0.000000D+00
       28354.6143        0.000000D+00
       28364.6143        0.000000D+00
       28374.6143        0.000000D+00
       28384.6143        0.000000D+00
       28394.6143        0.000000D+00
       28404.6143        0.000000D+00
       28414.6143        0.000000D+00
       28424.6143        0.000000D+00
       28434.6143        0.000000D+00
       28444.6143        0.000000D+00
       28454.6143        0.000000D+00
       28464.6143        0.000000D+00
       28474.6143        0.000000D+00
       28484.6143        0.000000D+00
       28494.6143        0.000000D+00
       28504.6143        0.000000D+00
       28514.6143        0.000000D+00
       28524.6143        0.000000D+00
       28534.6143        0.000000D+00
       28544.6143        0.000000D+00
       28554.6143        0.000000D+00
       28564.6143        0.000000D+00
       28574.6143        0.000000D+00
       28584.6143        0.000000D+00
       28594.6143        0.000000D+00
       28604.6143        0.000000D+00
       28614.6143        0.000000D+00
       28624.6143        0.000000D+00
       28634.6143        0.000000D+00
       28644.6143        0.000000D+00
       28654.6143        0.000000D+00
       28664.6143        0.000000D+00
       28674.6143        0.000000D+00
       28684.6143        0.000000D+00
       28694.6143        0.000000D+00
       28704.6143        0.000000D+00
       28714.6143        0.000000D+00
       28724.6143        0.000000D+00
       28734.6143        0.000000D+00
       28744.6143        0.000000D+00
       28754.6143        0.000000D+00
       28764.6143        0.000000D+00
       28774.6143        0.000000D+00
       28784.6143        0.000000D+00
       28794.6143        0.000000D+00
       28804.6143        0.000000D+00
       28814.6143        0.000000D+00
       28824.6143        0.000000D+00
       28834.6143        0.000000D+00
       28844.6143        0.000000D+00
       28854.6143        0.000000D+00
       28864.6143        0.000000D+00
       28874.6143        0.000000D+00
       28884.6143        0.000000D+00
       28894.6143        0.000000D+00
       28904.6143        0.000000D+00
       28914.6143        0.000000D+00
       28924.6143        0.000000D+00
       28934.6143        0.000000D+00
       28944.6143        0.000000D+00
       28954.6143        0.000000D+00
       28964.6143        0.000000D+00
       28974.6143        0.000000D+00
       28984.6143        0.000000D+00
       28994.6143        0.000000D+00
       29004.6143        0.000000D+00
       29014.6143        0.000000D+00
       29024.6143        0.000000D+00
       29034.6143        0.000000D+00
       29044.6143        0.000000D+00
       29054.6143        0.000000D+00
       29064.6143        0.000000D+00
       29074.6143        0.000000D+00
       29084.6143        0.000000D+00
       29094.6143        0.000000D+00
       29104.6143        0.000000D+00
       29114.6143        0.000000D+00
       29124.6143        0.000000D+00
       29134.6143        0.000000D+00
       29144.6143        0.000000D+00
       29154.6143        0.000000D+00
       29164.6143        0.000000D+00
       29174.6143        0.000000D+00
       29184.6143        0.000000D+00
       29194.6143        0.000000D+00
       29204.6143        0.000000D+00
       29214.6143        0.000000D+00
       29224.6143        0.000000D+00
       29234.6143        0.000000D+00
       29244.6143        0.000000D+00
       29254.6143        0.000000D+00
       29264.6143        0.000000D+00
       29274.6143        0.000000D+00
       29284.6143        0.000000D+00
       29294.6143        0.000000D+00
       29304.6143        0.000000D+00
       29314.6143        0.000000D+00
 ------------------------------------------------------------

 Quartic Centrifugal Distortion Constants Tau Prime
                       cm -1                    MHz
 TauP aaaa        -0.2459810197D-03        -0.7374325452D+01
 TauP bbaa        -0.1337005572D-05        -0.4008241868D-01
 TauP bbbb        -0.1308866426D-07        -0.3923882830D-03
 TauP ccaa        -0.1722573505D-05        -0.5164145450D-01
 TauP ccbb        -0.1257718043D-07        -0.3770543837D-03
 TauP cccc        -0.2133038234D-07        -0.6394687751D-03

 I r Representation for Asymmetric Top: Iz < Ix < Iy
 Asymmetric Top Reduction
 Asymmetric Top Parameter Kappa :       -0.9854288466
 Asymmetric Top Parameter Sigma :      273.5149880516

 Constants in the Asymmetrically reduced Hamiltonian 
                        cm-1                    MHz
  DELTA J  :    0.4302380825D-08         0.1289821323D-03
  DELTA K  :    0.6073582063D-04         0.1820814095D+01
  DELTA JK :    0.7551319217D-06         0.2263828549D-01
  delta J  :   -0.5151073800D-09        -0.1544253076D-04
  delta K  :    0.1106960162D-06         0.3318583077D-02

 Effective Rotational Constants
 (Include Terms due to Quartic Centrifugal Distortion Constants)
           Be in cm-1              B(A) in cm-1             B(A) IN  MHz
 a          1.668223826             1.668223824              50012.09206
 b          0.142392229             0.142392547               4268.82117
 c          0.131194081             0.131193765               3933.09014

 Nielsen Centrifugal Distortion Constants
                cm-1                     MHz
 DJ     0.4012859396D-08         0.1203024982D-03
 DJK    0.7568690503D-06         0.2269036330D-01
 DK     0.6073437302D-04         0.1820770697D+01
 dJ    -0.5151073800D-09        -0.1544253076D-04
 R5     0.2384044210D-07         0.7147184738D-03
 R6    -0.1447607145D-09        -0.4339817041D-05

 Constants in the Symmetrically Reduced Hamiltonian
                    cm-1                      MHz
  D J  :    0.4100022597D-08         0.1229155852D-03
  D JK :    0.7563460711D-06         0.2267468478D-01
  D K  :    0.6073480883D-04         0.1820783763D+01
  d 1  :    0.5151073800D-09         0.1544253076D-04
  d 2  :   -0.1011791136D-09        -0.3033273515D-05


 Effective Rotational Constants
 (Include Terms due to Quartic Centrifugal Distortion Constants)
           Be in cm-1              B(S) in cm-1             B(S) IN  MHz
 a          1.668223826             1.668223825              50012.09209
 b          0.142392229             0.142392325               4268.81452
 c          0.131194081             0.131193986               3933.09677

 Wilson Centrifugal Distortion Constants
                cm-1                     MHz
 DJ     0.5332595584D-08         0.1598671938D-03
 DJK   -0.4376600951D-08        -0.1312071957D-03
 DK     0.2316171432D-08         0.6943707266D-04

 Nielsen Centrifugal Distortion Constants
                cm-1                     MHz
 DJ     0.4012859396D-08         0.1203024982D-03
 DJK    0.7568690503D-06         0.2269036330D-01
 DK     0.6073437302D-04         0.1820770697D+01
 dJ    -0.5151073800D-09        -0.1544253076D-04
 R5     0.2384044210D-07         0.7147184738D-03
 R6    -0.1447607145D-09        -0.4339817041D-05

 Test of Quartic Planarity Relationships
 Asymmetric Reduction I r
 4C*DELJ - (B-C)*DELJK - 2*(2A+B+C)*SDELJ+ 2*(B-C)*SDELK = 0
 VALUE =    -0.4604403500D-15
 Symmetric Reduction I r
 4C*DJ - (B-C)*DJK + 2*(2A+B+C)*D1 - 4*(4A+B-3C)*D2 = 0
 Value =    -0.4604403521D-15

 Alpha Matrix in cm-1
 Axis Mode    Inertia        Coriol.        Anharm.        Total
  x    1   -0.47803D-03   -0.34704D-02    0.00000D+00   -0.39485D-02
  x    2   -0.11212D-01   -0.61746D-02    0.00000D+00   -0.17386D-01
  x    3   -0.75882D-03   -0.75646D-02    0.00000D+00   -0.83234D-02
  x    4   -0.38419D-02   -0.10641D-01    0.00000D+00   -0.14483D-01
  x    5   -0.10107D-05    0.12534D-01    0.00000D+00    0.12533D-01
  x    6   -0.10849D-02   -0.17289D-02    0.00000D+00   -0.28138D-02
  x    7   -0.77919D-04   -0.37643D-03    0.00000D+00   -0.45435D-03
  x    8   -0.61076D-03   -0.70373D-04    0.00000D+00   -0.68113D-03
  x    9   -0.23018D-02   -0.45806D-02    0.00000D+00   -0.68824D-02
  x   10   -0.94562D-03   -0.73375D-03    0.00000D+00   -0.16794D-02
  x   11   -0.28420D-02   -0.44841D-02    0.00000D+00   -0.73261D-02
  x   12   -0.88117D-03   -0.13592D-01    0.00000D+00   -0.14473D-01
  x   13   -0.30194D-08    0.17683D-01    0.00000D+00    0.17683D-01
  x   14   -0.95276D-09    0.13467D-01    0.00000D+00    0.13467D-01
  x   15   -0.21184D-09    0.56981D-02    0.00000D+00    0.56981D-02
  x   16   -0.58750D-03    0.91460D-02    0.00000D+00    0.85585D-02
  x   17   -0.11027D-04   -0.30184D+00    0.00000D+00   -0.30185D+00
  x   18   -0.12915D-09    0.31061D+00    0.00000D+00    0.31061D+00
  y    1   -0.10927D-04   -0.23289D-04    0.00000D+00   -0.34216D-04
  y    2   -0.47803D-07   -0.32529D-05    0.00000D+00   -0.33007D-05
  y    3   -0.21207D-05   -0.14422D-04    0.00000D+00   -0.16543D-04
  y    4   -0.11722D-06   -0.22181D-07    0.00000D+00   -0.13940D-06
  y    5   -0.81774D-08   -0.35341D-04    0.00000D+00   -0.35349D-04
  y    6   -0.10736D-05   -0.70390D-04    0.00000D+00   -0.71464D-04
  y    7   -0.15727D-05   -0.11632D-03    0.00000D+00   -0.11790D-03
  y    8   -0.49197D-04    0.74258D-05    0.00000D+00   -0.41771D-04
  y    9   -0.73102D-05   -0.55762D-04    0.00000D+00   -0.63072D-04
  y   10   -0.29019D-04   -0.73275D-04    0.00000D+00   -0.10229D-03
  y   11   -0.11351D-04   -0.44528D-04    0.00000D+00   -0.55880D-04
  y   12   -0.22958D-04   -0.58259D-04    0.00000D+00   -0.81217D-04
  y   13   -0.13256D-09    0.17974D-03    0.00000D+00    0.17974D-03
  y   14   -0.36547D-10    0.13561D-03    0.00000D+00    0.13561D-03
  y   15   -0.30494D-10    0.13615D-05    0.00000D+00    0.13615D-05
  y   16   -0.26379D-04    0.10778D-03    0.00000D+00    0.81401D-04
  y   17   -0.53079D-06   -0.43635D-03    0.00000D+00   -0.43688D-03
  y   18   -0.13317D-10    0.61118D-03    0.00000D+00    0.61118D-03
  z    1   -0.19939D-06   -0.44987D-04    0.00000D+00   -0.45186D-04
  z    2   -0.58409D-05   -0.43677D-04    0.00000D+00   -0.49518D-04
  z    3   -0.11838D-05   -0.35999D-04    0.00000D+00   -0.37183D-04
  z    4   -0.17364D-05   -0.42641D-04    0.00000D+00   -0.44377D-04
  z    5   -0.34189D-08   -0.46545D-08    0.00000D+00   -0.80734D-08
  z    6   -0.13283D-05    0.29282D-04    0.00000D+00    0.27954D-04
  z    7   -0.14796D-06   -0.33448D-04    0.00000D+00   -0.33596D-04
  z    8   -0.41275D-07   -0.22983D-03    0.00000D+00   -0.22987D-03
  z    9   -0.69621D-05    0.23007D-04    0.00000D+00    0.16045D-04
  z   10   -0.47940D-07    0.13559D-03    0.00000D+00    0.13554D-03
  z   11   -0.72834D-05    0.87938D-04    0.00000D+00    0.80654D-04
  z   12   -0.22256D-04    0.49254D-04    0.00000D+00    0.26998D-04
  z   13   -0.24223D-10   -0.48566D-09    0.00000D+00   -0.50989D-09
  z   14   -0.23945D-10    0.00000D+00    0.00000D+00   -0.23945D-10
  z   15   -0.16534D-10    0.00000D+00    0.00000D+00   -0.16534D-10
  z   16   -0.16062D-04    0.59197D-04    0.00000D+00    0.43136D-04
  z   17   -0.26997D-07    0.14509D-03    0.00000D+00    0.14506D-03
  z   18   -0.69026D-11    0.00000D+00    0.00000D+00   -0.69026D-11
 
                                                      acrolein test BLYP opt S0
                                                             IR Spectrum
 
     3  33    2                  2                                       1   1    11 1    1                                          
     1  10    9                  4                                       5   4    22 1    0     9    8  7      5 4       22          
     9  09    8                  9                                       0   0    74 9    7     1    0  2      3 8       96          
     5  59    5                  6                                       1   6    28 0    7     2    3  6      2 0       25          
 
     X  XX    X                  X                                       X   X    XX X    X     X    X  X      X X       XX          
     X   X                       X                                       X         X      X          X  X      X                     
                                 X                                                        X          X  X      X                     
                                 X                                                        X          X  X      X                     
                                 X                                                        X          X  X                            
                                 X                                                                   X  X                            
                                 X                                                                   X                               
                                 X                                                                   X                               
                                 X                                                                                                   
                                 X                                                                                                   
                                 X                                                                                                   
                                 X                                                                                                   
                                 X                                                                                                   
                                 X                                                                                                   
                                 X                                                                                                   
                                 X                                                                                                   
                                 X                                                                                                   
                                 X                                                                                                   
                                 X                                                                                                   
                                 X                                                                                                   
 
 -------------------------------------------------------------------
 Center     Atomic                   Forces (Hartrees/Bohr)
 Number     Number              X              Y              Z
 -------------------------------------------------------------------
      1        8          -0.000102916   -0.000063542   -0.000020018
      2        6           0.000001035    0.000036339   -0.000024798
      3        6           0.000049138    0.000001225    0.000010756
      4        6           0.000030053    0.000073930    0.000062433
      5        1           0.000025497   -0.000021512   -0.000020762
      6        1          -0.000016189   -0.000002968   -0.000019751
      7        1          -0.000000031   -0.000012098    0.000017936
      8        1           0.000013412   -0.000011374   -0.000005795
 -------------------------------------------------------------------
 Cartesian Forces:  Max     0.000102916 RMS     0.000036958
 Force constants in Cartesian coordinates: 
                1             2             3             4             5 
      1  0.324038D+00
      2  0.109765D+00  0.740735D-01
      3 -0.905198D-03  0.351290D-03  0.589360D-01
      4 -0.347358D-02 -0.319960D-02 -0.324235D-02  0.656472D+00
      5 -0.217795D-02 -0.162653D-02 -0.930474D-03  0.911370D-02  0.619244D+00
      6 -0.116703D-02  0.474681D-03  0.689402D-01 -0.420720D-02 -0.120856D-02
      7 -0.550800D-01  0.425689D-02  0.360319D-02 -0.283236D+00 -0.855794D-01
      8 -0.981412D-02 -0.357630D-04  0.863585D-03 -0.125329D+00 -0.154193D+00
      9  0.486454D-03 -0.237232D-03 -0.261519D-01  0.170046D-02  0.505816D-03
     10 -0.253090D+00 -0.868696D-01  0.995054D-03 -0.766324D-01  0.117376D-01
     11 -0.816113D-01 -0.523139D-01 -0.353426D-03  0.234651D-01  0.188651D-01
     12  0.287024D-02 -0.120001D-02 -0.172262D+00  0.103580D-01  0.296548D-02
     13 -0.175809D-01 -0.274916D-01 -0.427866D-03  0.196698D-02 -0.666558D-03
     14 -0.145954D-01 -0.208886D-01  0.778178D-04 -0.289915D-02  0.177430D-02
     15 -0.947701D-03  0.420781D-03  0.541430D-01 -0.340536D-02 -0.978217D-03
     16  0.612635D-02  0.347682D-02 -0.625666D-04 -0.717041D-03 -0.301043D-01
     17 -0.273531D-02  0.417295D-03  0.647528D-04  0.763726D-03 -0.979600D-02
     18 -0.932687D-03  0.437078D-03  0.483899D-01 -0.335410D-02 -0.967034D-03
     19  0.559230D-05  0.438762D-03 -0.279148D-04 -0.234311D+00  0.132162D+00
     20  0.778647D-03 -0.545387D-04 -0.110719D-03  0.136686D+00 -0.151883D+00
     21  0.878697D-03 -0.374795D-03 -0.471800D-01  0.319624D-02  0.918277D-03
     22 -0.945285D-03 -0.376388D-03  0.676523D-04 -0.600692D-01 -0.344854D-01
     23  0.390773D-03  0.428518D-03  0.371735D-04 -0.386009D-01 -0.322385D+00
     24 -0.282773D-03  0.128203D-03  0.151848D-01 -0.104573D-02 -0.305288D-03
                6             7             8             9            10 
      6  0.152502D+00
      7  0.471144D-02  0.576660D+00
      8  0.110473D-02  0.364235D-01  0.634107D+00
      9 -0.731963D-01 -0.194394D-02 -0.477434D-03  0.115134D+00
     10  0.126936D-02 -0.161806D+00  0.106953D+00 -0.472982D-03  0.526855D+00
     11 -0.458797D-03  0.829105D-01 -0.146264D+00  0.243809D-03 -0.413481D-01
     12 -0.200832D+00 -0.115551D-01 -0.280153D-02  0.520036D-01 -0.311516D-02
     13 -0.566659D-03 -0.149988D-02  0.284022D-01  0.233358D-03 -0.279994D-01
     14  0.995668D-04 -0.282604D-02 -0.158377D-01 -0.387414D-04  0.133621D-01
     15  0.661901D-01  0.380376D-02  0.945151D-03 -0.267114D-01  0.101828D-02
     16 -0.810402D-04 -0.539413D-01 -0.244059D-01  0.233214D-04 -0.789831D-02
     17  0.788626D-04 -0.244018D-01 -0.315650D+00 -0.296024D-04  0.890755D-03
     18  0.702720D-01  0.379543D-02  0.931005D-03 -0.635015D-01  0.950278D-03
     19 -0.456553D-04 -0.185282D-01  0.179703D-01  0.826603D-05 -0.338155D-02
     20 -0.141429D-03 -0.136561D-01  0.698682D-02  0.513207D-04 -0.506108D-02
     21 -0.814901D-01 -0.360388D-02 -0.850550D-03  0.281927D-01 -0.924533D-03
     22  0.867791D-04 -0.256794D-02 -0.302000D-01 -0.349397D-04  0.395214D-02
     23  0.509422D-04  0.287247D-02 -0.911266D-02 -0.179356D-04  0.335097D-03
     24 -0.238532D-02  0.118911D-02  0.285043D-03 -0.576942D-02  0.279692D-03
               11            12            13            14            15 
     11  0.474150D+00
     12  0.126281D-02  0.559427D+00
     13 -0.499408D-02  0.136674D-02  0.478733D-01
     14 -0.281931D+00 -0.254276D-03  0.402251D-02  0.317412D+00
     15 -0.470757D-03 -0.183676D+00 -0.447610D-03  0.911492D-04  0.653870D-01
     16  0.245923D-01  0.203171D-03 -0.267241D-02  0.218304D-02 -0.634272D-04
     17 -0.146017D-01 -0.211035D-03  0.142972D-02 -0.671663D-03  0.686571D-04
     18 -0.467579D-03 -0.160801D+00 -0.444952D-03  0.759841D-04  0.595450D-01
     19 -0.260048D-02  0.901174D-04  0.340167D-03  0.270919D-04 -0.287766D-04
     20  0.133746D-02  0.355657D-03  0.802970D-04 -0.102667D-03 -0.115589D-03
     21  0.369308D-03  0.159392D+00  0.425533D-03 -0.704350D-04 -0.514668D-01
     22 -0.413880D-03 -0.218023D-03 -0.427821D-03  0.725890D-03  0.708281D-04
     23  0.758993D-03 -0.117092D-03 -0.782465D-03  0.245304D-03  0.388245D-04
     24 -0.125367D-03 -0.532520D-01 -0.138543D-03  0.189343D-04  0.165893D-01
               16            17            18            19            20 
     16  0.620021D-01
     17  0.256923D-01  0.338165D+00
     18 -0.598294D-04  0.690387D-04  0.771580D-01
     19  0.100838D-02 -0.167617D-03 -0.273988D-04  0.249704D+00
     20  0.261858D-03  0.123852D-02 -0.114096D-03 -0.142132D+00  0.154583D+00
     21  0.618005D-04 -0.643363D-04 -0.548017D-01  0.374467D-04  0.106646D-03
     22 -0.390776D-02 -0.147179D-02  0.732537D-04  0.516270D-02  0.230424D-01
     23 -0.169601D-02  0.898895D-03  0.356030D-04 -0.569810D-02 -0.121055D-01
     24 -0.214291D-04  0.236631D-04  0.237389D-01 -0.608475D-05 -0.317892D-04
               21            22            23            24 
     21  0.607542D-01
     22 -0.713017D-04  0.588032D-01
     23 -0.341154D-04  0.431792D-01  0.341272D+00
     24 -0.134002D-01  0.257514D-04  0.660029D-05  0.192939D-01
 Leave Link  716 at Wed Apr 15 09:57:54 2015, MaxMem= 1048576000 cpu:     725.9
 (Enter /usr/soft/chemie/g09/l9999.exe)

 This type of calculation cannot be archived.


 The earth never tires,
 The earth is rude, silent, incomprehensible at first,
 Nature is rude and incomprehensible at first,
 Be not discouraged, keep on,
 There are divine things well envelop'd,
 I swear to you there are divine things more beautiful than words can tell.
                                 -- Walt Whitman
 Job cpu time:  0 days  0 hours 12 minutes  8.1 seconds.
 File lengths (MBytes):  RWF=      5 Int=      0 D2E=      0 Chk=      1 Scr=      1
 Normal termination of Gaussian 09 at Wed Apr 15 09:57:54 2015.
