 Entering Gaussian System, Link 0=g09
 Initial command:
 /apps/Gausian/g09/l1.exe /local/tm162.488631/scratch/Gau-15550.inp -scrdir=/local/tm162.488631/scratch/
 Entering Link 1 = /apps/Gausian/g09/l1.exe PID=     15551.
  
 Copyright (c) 1988,1990,1992,1993,1995,1998,2003,2009,2011,
            Gaussian, Inc.  All Rights Reserved.
  
 This is part of the Gaussian(R) 09 program.  It is based on
 the Gaussian(R) 03 system (copyright 2003, Gaussian, Inc.),
 the Gaussian(R) 98 system (copyright 1998, Gaussian, Inc.),
 the Gaussian(R) 94 system (copyright 1995, Gaussian, Inc.),
 the Gaussian 92(TM) system (copyright 1992, Gaussian, Inc.),
 the Gaussian 90(TM) system (copyright 1990, Gaussian, Inc.),
 the Gaussian 88(TM) system (copyright 1988, Gaussian, Inc.),
 the Gaussian 86(TM) system (copyright 1986, Carnegie Mellon
 University), and the Gaussian 82(TM) system (copyright 1983,
 Carnegie Mellon University). Gaussian is a federally registered
 trademark of Gaussian, Inc.
  
 This software contains proprietary and confidential information,
 including trade secrets, belonging to Gaussian, Inc.
  
 This software is provided under written license and may be
 used, copied, transmitted, or stored only in accord with that
 written license.
  
 The following legend is applicable only to US Government
 contracts under FAR:
  
                    RESTRICTED RIGHTS LEGEND
  
 Use, reproduction and disclosure by the US Government is
 subject to restrictions as set forth in subparagraphs (a)
 and (c) of the Commercial Computer Software - Restricted
 Rights clause in FAR 52.227-19.
  
 Gaussian, Inc.
 340 Quinnipiac St., Bldg. 40, Wallingford CT 06492
  
  
 ---------------------------------------------------------------
 Warning -- This program may not be used in any manner that
 competes with the business of Gaussian, Inc. or will provide
 assistance to any competitor of Gaussian, Inc.  The licensee
 of this program is prohibited from giving any competitor of
 Gaussian, Inc. access to this program.  By using this program,
 the user acknowledges that Gaussian, Inc. is engaged in the
 business of creating and licensing software in the field of
 computational chemistry and represents and warrants to the
 licensee that it is not a competitor of Gaussian, Inc. and that
 it will not use this program in any manner prohibited above.
 ---------------------------------------------------------------
  

 Cite this work as:
 Gaussian 09, Revision C.01,
 M. J. Frisch, G. W. Trucks, H. B. Schlegel, G. E. Scuseria, 
 M. A. Robb, J. R. Cheeseman, G. Scalmani, V. Barone, B. Mennucci, 
 G. A. Petersson, H. Nakatsuji, M. Caricato, X. Li, H. P. Hratchian, 
 A. F. Izmaylov, J. Bloino, G. Zheng, J. L. Sonnenberg, M. Hada, 
 M. Ehara, K. Toyota, R. Fukuda, J. Hasegawa, M. Ishida, T. Nakajima, 
 Y. Honda, O. Kitao, H. Nakai, T. Vreven, J. A. Montgomery, Jr., 
 J. E. Peralta, F. Ogliaro, M. Bearpark, J. J. Heyd, E. Brothers, 
 K. N. Kudin, V. N. Staroverov, T. Keith, R. Kobayashi, J. Normand, 
 K. Raghavachari, A. Rendell, J. C. Burant, S. S. Iyengar, J. Tomasi, 
 M. Cossi, N. Rega, J. M. Millam, M. Klene, J. E. Knox, J. B. Cross, 
 V. Bakken, C. Adamo, J. Jaramillo, R. Gomperts, R. E. Stratmann, 
 O. Yazyev, A. J. Austin, R. Cammi, C. Pomelli, J. W. Ochterski, 
 R. L. Martin, K. Morokuma, V. G. Zakrzewski, G. A. Voth, 
 P. Salvador, J. J. Dannenberg, S. Dapprich, A. D. Daniels, 
 O. Farkas, J. B. Foresman, J. V. Ortiz, J. Cioslowski, 
 and D. J. Fox, Gaussian, Inc., Wallingford CT, 2010.
 
 ******************************************
 Gaussian 09:  EM64L-G09RevC.01 23-Sep-2011
                18-Jan-2016 
 ******************************************
 %rwf=/local/tm162.488631/excited_freqg.g09.rwf
 %nosave
 %chk=/local/tm162.488631/benzE.chk
 %nproc=1
 Will use up to    1 processors via shared memory.
 %mem=1Gb
 ----------------------------------------------------------------------
 #P TD=(Singlets, Root=1, NStates=5) opt=(tight,) NoSymm B3lyp/Def2TZVP
  Freq IOP(1/33=1)
 ----------------------------------------------------------------------
 1/7=10,14=-1,18=20,19=15,26=3,33=1,38=1/1,3;
 2/9=110,12=2,15=1,17=6,18=5,40=1/2;
 3/5=44,7=101,11=2,16=1,25=1,30=1,71=1,74=-5/1,2,8,3;
 4//1;
 5/5=2,38=5/2;
 8/6=1,10=1,107=1,108=5/1;
 9/8=1,15=2,41=5,42=1,48=1/14;
 10/5=4,31=1/2;
 6/7=2,8=2,9=2,10=2/1;
 7/12=6,13=5,14=1,30=1/1,2,3,16;
 1/7=10,14=-1,18=20,19=15,33=1/3(2);
 2/9=110,15=1/2;
 99//99;
 2/9=110,15=1/2;
 3/5=44,7=101,11=2,16=1,25=1,30=1,71=1,74=-5/1,2,8,3;
 4/5=5,16=3/1;
 5/5=2,38=5/2;
 8/6=1,10=1,107=1,108=5/1;
 9/8=1,15=2,41=5,42=1,48=1,49=4/14;
 10/5=4,31=1/2;
 7/12=6,13=5,14=1,30=1/1,2,3,16;
 1/7=10,14=-1,18=20,19=15,33=1/3(-8);
 2/9=110,15=1/2;
 6/7=2,8=2,9=2,10=2/1;
 99//99;
 Leave Link    1 at Mon Jan 18 15:38:22 2016, MaxMem=  134217728 cpu:       0.0
 (Enter /apps/Gausian/g09/l101.exe)
 ONIOM data not found on unit 2.
 -----
 benzE
 -----
 Charge =  0 Multiplicity = 1
 Symbolic Z-Matrix:
 C                     1.38442   0.        0. 
 H                     2.47246   0.        0. 
 C                    -1.38442   0.        0. 
 H                    -2.47246   0.        0. 
 C                     0.69221   1.19895   0. 
 H                     1.23625   2.1412    0. 
 C                     0.69221  -1.19895   0. 
 H                     1.23625  -2.1412    0. 
 C                    -0.69221   1.19895   0. 
 H                    -1.23625   2.1412    0. 
 C                    -0.69221  -1.19895   0. 
 H                    -1.23625  -2.1412    0. 
 
 RdStrC is calling ZToCFu for IStruc=1 NZ=    12.
 PrtBox:  NBox=     3 Levels=  1 BoxLen=    8.00 SMaxX=        9.34
          Shift=            4.672264            4.046286            0.000000
 Box      1 Number                   0 centers from      1 to      9:
 Box      2 Number                   2 centers from     10 to     11:
 Box      3 Number                   4 centers from     12 to     12:
 ITRead=  0  0  0  0  0  0  0  0  0  0  0  0
 MicOpt= -1 -1 -1 -1 -1 -1 -1 -1 -1 -1 -1 -1
 NAtoms=     12 NQM=        0 NQMF=       0 NMMI=     12 NMMIF=      0
                NMic=       0 NMicF=      0.
                    Isotopes and Nuclear Properties:
 (Nuclear quadrupole moments (NQMom) in fm**2, nuclear magnetic moments (NMagM)
  in nuclear magnetons)

  Atom         1           2           3           4           5           6           7           8           9          10
 IAtWgt=          12           1          12           1          12           1          12           1          12           1
 AtmWgt=  12.0000000   1.0078250  12.0000000   1.0078250  12.0000000   1.0078250  12.0000000   1.0078250  12.0000000   1.0078250
 NucSpn=           0           1           0           1           0           1           0           1           0           1
 AtZEff=   0.0000000   0.0000000   0.0000000   0.0000000   0.0000000   0.0000000   0.0000000   0.0000000   0.0000000   0.0000000
 NQMom=    0.0000000   0.0000000   0.0000000   0.0000000   0.0000000   0.0000000   0.0000000   0.0000000   0.0000000   0.0000000
 NMagM=    0.0000000   2.7928460   0.0000000   2.7928460   0.0000000   2.7928460   0.0000000   2.7928460   0.0000000   2.7928460

  Atom        11          12
 IAtWgt=          12           1
 AtmWgt=  12.0000000   1.0078250
 NucSpn=           0           1
 AtZEff=   0.0000000   0.0000000
 NQMom=    0.0000000   0.0000000
 NMagM=    0.0000000   2.7928460
 No MM parameters found.
 Leave Link  101 at Mon Jan 18 15:38:22 2016, MaxMem=  134217728 cpu:       0.1
 (Enter /apps/Gausian/g09/l103.exe)

 GradGradGradGradGradGradGradGradGradGradGradGradGradGradGradGradGradGrad
 Berny optimization.
 Initialization pass.
                           ----------------------------
                           !    Initial Parameters    !
                           ! (Angstroms and Degrees)  !
 --------------------------                            --------------------------
 ! Name  Definition              Value          Derivative Info.                !
 --------------------------------------------------------------------------------
 ! R1    R(1,2)                  1.088          estimate D2E/DX2                !
 ! R2    R(1,5)                  1.3844         estimate D2E/DX2                !
 ! R3    R(1,7)                  1.3844         estimate D2E/DX2                !
 ! R4    R(3,4)                  1.088          estimate D2E/DX2                !
 ! R5    R(3,9)                  1.3844         estimate D2E/DX2                !
 ! R6    R(3,11)                 1.3844         estimate D2E/DX2                !
 ! R7    R(5,6)                  1.088          estimate D2E/DX2                !
 ! R8    R(5,9)                  1.3844         estimate D2E/DX2                !
 ! R9    R(7,8)                  1.088          estimate D2E/DX2                !
 ! R10   R(7,11)                 1.3844         estimate D2E/DX2                !
 ! R11   R(9,10)                 1.088          estimate D2E/DX2                !
 ! R12   R(11,12)                1.088          estimate D2E/DX2                !
 ! A1    A(2,1,5)              119.9998         estimate D2E/DX2                !
 ! A2    A(2,1,7)              119.9998         estimate D2E/DX2                !
 ! A3    A(5,1,7)              120.0004         estimate D2E/DX2                !
 ! A4    A(4,3,9)              119.9998         estimate D2E/DX2                !
 ! A5    A(4,3,11)             119.9998         estimate D2E/DX2                !
 ! A6    A(9,3,11)             120.0004         estimate D2E/DX2                !
 ! A7    A(1,5,6)              119.9991         estimate D2E/DX2                !
 ! A8    A(1,5,9)              119.9998         estimate D2E/DX2                !
 ! A9    A(6,5,9)              120.0011         estimate D2E/DX2                !
 ! A10   A(1,7,8)              119.9991         estimate D2E/DX2                !
 ! A11   A(1,7,11)             119.9998         estimate D2E/DX2                !
 ! A12   A(8,7,11)             120.0011         estimate D2E/DX2                !
 ! A13   A(3,9,5)              119.9998         estimate D2E/DX2                !
 ! A14   A(3,9,10)             119.9991         estimate D2E/DX2                !
 ! A15   A(5,9,10)             120.0011         estimate D2E/DX2                !
 ! A16   A(3,11,7)             119.9998         estimate D2E/DX2                !
 ! A17   A(3,11,12)            119.9991         estimate D2E/DX2                !
 ! A18   A(7,11,12)            120.0011         estimate D2E/DX2                !
 ! D1    D(2,1,5,6)              0.0            estimate D2E/DX2                !
 ! D2    D(2,1,5,9)            180.0            estimate D2E/DX2                !
 ! D3    D(7,1,5,6)            180.0            estimate D2E/DX2                !
 ! D4    D(7,1,5,9)              0.0            estimate D2E/DX2                !
 ! D5    D(2,1,7,8)              0.0            estimate D2E/DX2                !
 ! D6    D(2,1,7,11)           180.0            estimate D2E/DX2                !
 ! D7    D(5,1,7,8)            180.0            estimate D2E/DX2                !
 ! D8    D(5,1,7,11)             0.0            estimate D2E/DX2                !
 ! D9    D(4,3,9,5)            180.0            estimate D2E/DX2                !
 ! D10   D(4,3,9,10)             0.0            estimate D2E/DX2                !
 ! D11   D(11,3,9,5)             0.0            estimate D2E/DX2                !
 ! D12   D(11,3,9,10)          180.0            estimate D2E/DX2                !
 ! D13   D(4,3,11,7)           180.0            estimate D2E/DX2                !
 ! D14   D(4,3,11,12)            0.0            estimate D2E/DX2                !
 ! D15   D(9,3,11,7)             0.0            estimate D2E/DX2                !
 ! D16   D(9,3,11,12)          180.0            estimate D2E/DX2                !
 ! D17   D(1,5,9,3)              0.0            estimate D2E/DX2                !
 ! D18   D(1,5,9,10)           180.0            estimate D2E/DX2                !
 ! D19   D(6,5,9,3)            180.0            estimate D2E/DX2                !
 ! D20   D(6,5,9,10)             0.0            estimate D2E/DX2                !
 ! D21   D(1,7,11,3)             0.0            estimate D2E/DX2                !
 ! D22   D(1,7,11,12)          180.0            estimate D2E/DX2                !
 ! D23   D(8,7,11,3)           180.0            estimate D2E/DX2                !
 ! D24   D(8,7,11,12)            0.0            estimate D2E/DX2                !
 --------------------------------------------------------------------------------
 Maximum allowed force set to 1.00D+20.
 Trust Radius=3.00D-01 FncErr=1.00D-07 GrdErr=1.00D-06
 Number of steps in this run=     64 maximum allowed number of steps=    100.
 GradGradGradGradGradGradGradGradGradGradGradGradGradGradGradGradGradGrad

 Leave Link  103 at Mon Jan 18 15:38:22 2016, MaxMem=  134217728 cpu:       0.0
 (Enter /apps/Gausian/g09/l202.exe)
                          Input orientation:                          
 ---------------------------------------------------------------------
 Center     Atomic      Atomic             Coordinates (Angstroms)
 Number     Number       Type             X           Y           Z
 ---------------------------------------------------------------------
      1          6           0        1.384419    0.000000    0.000000
      2          1           0        2.472456    0.000000    0.000000
      3          6           0       -1.384419    0.000000    0.000000
      4          1           0       -2.472456    0.000000    0.000000
      5          6           0        0.692212    1.198948    0.000000
      6          1           0        1.236247    2.141203    0.000000
      7          6           0        0.692212   -1.198948    0.000000
      8          1           0        1.236247   -2.141203    0.000000
      9          6           0       -0.692212    1.198948    0.000000
     10          1           0       -1.236247    2.141203    0.000000
     11          6           0       -0.692212   -1.198948    0.000000
     12          1           0       -1.236247   -2.141203    0.000000
 ---------------------------------------------------------------------
                    Distance matrix (angstroms):
                    1          2          3          4          5
     1  C    0.000000
     2  H    1.088036   0.000000
     3  C    2.768839   3.856875   0.000000
     4  H    3.856875   4.944912   1.088036   0.000000
     5  C    1.384423   2.146333   2.397889   3.384168   0.000000
     6  H    2.146323   2.472440   3.384175   4.282432   1.088034
     7  C    1.384423   2.146333   2.397889   3.384168   2.397896
     8  H    2.146323   2.472440   3.384175   4.282432   3.384166
     9  C    2.397889   3.384168   1.384423   2.146333   1.384423
    10  H    3.384175   4.282432   2.146323   2.472440   2.146345
    11  C    2.397889   3.384168   1.384423   2.146333   2.768850
    12  H    3.384175   4.282432   2.146323   2.472440   3.856884
                    6          7          8          9         10
     6  H    0.000000
     7  C    3.384166   0.000000
     8  H    4.282405   1.088034   0.000000
     9  C    2.146345   2.768850   3.856885   0.000000
    10  H    2.472494   3.856884   4.944919   1.088034   0.000000
    11  C    3.856885   1.384423   2.146345   2.397896   3.384166
    12  H    4.944919   2.146345   2.472494   3.384166   4.282405
                   11         12
    11  C    0.000000
    12  H    1.088034   0.000000
 Symmetry turned off by external request.
 Stoichiometry    C6H6
 Framework group  D2H[C2"(HC.CH),SG(C4H4)]
 Deg. of freedom     6
 Full point group                 D2H     NOp   8
 Rotational constants (GHZ):      5.7770052      5.7769906      2.8884990
 Leave Link  202 at Mon Jan 18 15:38:22 2016, MaxMem=  134217728 cpu:       0.0
 (Enter /apps/Gausian/g09/l301.exe)
 Standard basis: def2TZVP (5D, 7F)
 Ernie: Thresh=  0.10000D-02 Tol=  0.10000D-05 Strict=F.
 Integral buffers will be    131072 words long.
 Raffenetti 2 integral format.
 Two-electron integral symmetry is turned off.
   222 basis functions,   354 primitive gaussians,   252 cartesian basis functions
    21 alpha electrons       21 beta electrons
       nuclear repulsion energy       204.6767178891 Hartrees.
 IExCor=  402 DFT=T Ex+Corr=B3LYP ExCW=0 ScaHFX=  0.200000
 ScaDFX=  0.800000  0.720000  1.000000  0.810000 ScalE2=  1.000000  1.000000
 IRadAn=      0 IRanWt=     -1 IRanGd=            0 ICorTp=0
 NAtoms=   12 NActive=   12 NUniq=   12 SFac= 1.00D+00 NAtFMM=   60 NAOKFM=F Big=F
 Leave Link  301 at Mon Jan 18 15:38:23 2016, MaxMem=  134217728 cpu:       0.1
 (Enter /apps/Gausian/g09/l302.exe)
 NPDir=0 NMtPBC=     1 NCelOv=     1 NCel=       1 NClECP=     1 NCelD=      1
         NCelK=      1 NCelE2=     1 NClLst=     1 CellRange=     0.0.
 One-electron integrals computed using PRISM.
   1 Symmetry operations used in ECPInt.
 ECPInt:  NShTT=    4095 NPrTT=   12396 LenC2=    4075 LenP2D=   10437.
 LDataN:  DoStor=T MaxTD1= 6 Len=  172
 NBasis=   222 RedAO= T  NBF=   222
 NBsUse=   222 1.00D-06 NBFU=   222
 Precomputing XC quadrature grid using
 IXCGrd= 2 IRadAn=           0 IRanWt=          -1 IRanGd=           0 AccXCQ= 0.00D+00.
 NRdTot=     750 NPtTot=       95532 NUsed=      100951 NTot=      100983
 NSgBfM=   251   251   251   251   251 NAtAll=    12    12.
 Leave Link  302 at Mon Jan 18 15:38:23 2016, MaxMem=  134217728 cpu:       0.3
 (Enter /apps/Gausian/g09/l308.exe)
 Leave Link  308 at Mon Jan 18 15:38:23 2016, MaxMem=  134217728 cpu:       0.1
 (Enter /apps/Gausian/g09/l303.exe)
 DipDrv:  MaxL=1.
 Leave Link  303 at Mon Jan 18 15:38:23 2016, MaxMem=  134217728 cpu:       0.0
 (Enter /apps/Gausian/g09/l401.exe)
 Harris functional with IExCor=  402 diagonalized for initial guess.
 ExpMin= 9.52D-02 ExpMax= 1.36D+04 ExpMxC= 4.63D+02 IAcc=2 IRadAn=         4 AccDes= 0.00D+00
 HarFok:  IExCor=  402 AccDes= 0.00D+00 IRadAn=         4 IDoV= 1
 ScaDFX=  1.000000  1.000000  1.000000  1.000000
 FoFCou: FMM=F IPFlag=           0 FMFlag=      100000 FMFlg1=           0
         NFxFlg=           0 DoJE=T BraDBF=F KetDBF=T FulRan=T
         Omega=  0.000000  0.000000  1.000000  0.000000  0.000000 ICntrl=     500 IOpCl=  0
         NMat0=    1 NMatS0=    1 NMatT0=    0 NMatD0=    1 NMtDS0=    0 NMtDT0=    0
         I1Cent=           4 NGrid=           0.
 Symmetry not used in FoFCou.
 Harris En= -232.372841541357    
 Leave Link  401 at Mon Jan 18 15:38:27 2016, MaxMem=  134217728 cpu:       3.0
 (Enter /apps/Gausian/g09/l502.exe)
 Closed shell SCF:
 Requested convergence on RMS density matrix=1.00D-08 within 128 cycles.
 Requested convergence on MAX density matrix=1.00D-06.
 Requested convergence on             energy=1.00D-06.
 No special actions if energy rises.
 Using DIIS extrapolation, IDIIS=  1040.
 Two-electron integral symmetry not used.
       100830 words used for storage of precomputed grid.
 IEnd=      312536 IEndB=      312536 NGot=   134217728 MDV=   133985589
 LenX=   133985589 LenY=   133921644
 Fock matrices will be formed incrementally for  20 cycles.
 Integral accuracy reduced to 1.0D-05 until final iterations.

 Cycle   1  Pass 0  IDiag  1:
 FoFCou: FMM=F IPFlag=           0 FMFlag=      100000 FMFlg1=           0
         NFxFlg=           0 DoJE=F BraDBF=F KetDBF=F FulRan=T
         Omega=  0.000000  0.000000  1.000000  0.000000  0.000000 ICntrl=       0 IOpCl=  0
         NMat0=    1 NMatS0=    1 NMatT0=    0 NMatD0=    1 NMtDS0=    0 NMtDT0=    0
         I1Cent=           0 NGrid=           0.
 Symmetry not used in FoFCou.
 E= -232.163368894182    
 DIIS: error= 3.30D-02 at cycle   1 NSaved=   1.
 NSaved= 1 IEnMin= 1 EnMin= -232.163368894182     IErMin= 1 ErrMin= 3.30D-02
 ErrMax= 3.30D-02 EMaxC= 1.00D-01 BMatC= 1.65D-01 BMatP= 1.65D-01
 IDIUse=3 WtCom= 6.70D-01 WtEn= 3.30D-01
 Coeff-Com:  0.100D+01
 Coeff-En:   0.100D+01
 Coeff:      0.100D+01
 Gap=     0.247 Goal=   None    Shift=    0.000
 GapD=    0.247 DampG=1.000 DampE=0.500 DampFc=0.5000 IDamp=-1.
 Damping current iteration by 5.00D-01
 RMSDP=3.52D-03 MaxDP=5.55D-02              OVMax= 1.79D-01

 Cycle   2  Pass 0  IDiag  1:
 RMSU=  1.18D-03    CP:  9.47D-01
 E= -232.235874978925     Delta-E=       -0.072506084743 Rises=F Damp=T
 DIIS: error= 1.05D-02 at cycle   2 NSaved=   2.
 NSaved= 2 IEnMin= 2 EnMin= -232.235874978925     IErMin= 2 ErrMin= 1.05D-02
 ErrMax= 1.05D-02 EMaxC= 1.00D-01 BMatC= 9.74D-03 BMatP= 1.65D-01
 IDIUse=3 WtCom= 8.95D-01 WtEn= 1.05D-01
 Coeff-Com:  0.611D-01 0.939D+00
 Coeff-En:   0.150D+00 0.850D+00
 Coeff:      0.704D-01 0.930D+00
 Gap=     0.309 Goal=   None    Shift=    0.000
 RMSDP=9.20D-04 MaxDP=1.41D-02 DE=-7.25D-02 OVMax= 1.05D-01

 Cycle   3  Pass 0  IDiag  1:
 RMSU=  6.43D-04    CP:  9.36D-01  9.52D-01
 E= -232.334447987967     Delta-E=       -0.098573009043 Rises=F Damp=F
 DIIS: error= 7.40D-03 at cycle   3 NSaved=   3.
 NSaved= 3 IEnMin= 3 EnMin= -232.334447987967     IErMin= 3 ErrMin= 7.40D-03
 ErrMax= 7.40D-03 EMaxC= 1.00D-01 BMatC= 2.73D-03 BMatP= 9.74D-03
 IDIUse=3 WtCom= 9.26D-01 WtEn= 7.40D-02
 Coeff-Com: -0.377D-01 0.312D+00 0.725D+00
 Coeff-En:   0.000D+00 0.000D+00 0.100D+01
 Coeff:     -0.349D-01 0.289D+00 0.746D+00
 Gap=     0.247 Goal=   None    Shift=    0.000
 RMSDP=1.76D-04 MaxDP=3.17D-03 DE=-9.86D-02 OVMax= 1.18D-02

 Cycle   4  Pass 0  IDiag  1:
 RMSU=  9.83D-05    CP:  9.34D-01  9.96D-01  9.16D-01
 E= -232.337031359995     Delta-E=       -0.002583372028 Rises=F Damp=F
 DIIS: error= 9.37D-04 at cycle   4 NSaved=   4.
 NSaved= 4 IEnMin= 4 EnMin= -232.337031359995     IErMin= 4 ErrMin= 9.37D-04
 ErrMax= 9.37D-04 EMaxC= 1.00D-01 BMatC= 7.22D-05 BMatP= 2.73D-03
 IDIUse=3 WtCom= 9.91D-01 WtEn= 9.37D-03
 Coeff-Com: -0.118D-01 0.265D-01 0.181D+00 0.804D+00
 Coeff-En:   0.000D+00 0.000D+00 0.000D+00 0.100D+01
 Coeff:     -0.117D-01 0.262D-01 0.180D+00 0.806D+00
 Gap=     0.247 Goal=   None    Shift=    0.000
 RMSDP=4.81D-05 MaxDP=5.33D-04 DE=-2.58D-03 OVMax= 1.44D-03

 Cycle   5  Pass 0  IDiag  1:
 RMSU=  1.60D-05    CP:  9.34D-01  1.01D+00  9.51D-01  8.75D-01
 E= -232.337095211711     Delta-E=       -0.000063851716 Rises=F Damp=F
 DIIS: error= 3.60D-05 at cycle   5 NSaved=   5.
 NSaved= 5 IEnMin= 5 EnMin= -232.337095211711     IErMin= 5 ErrMin= 3.60D-05
 ErrMax= 3.60D-05 EMaxC= 1.00D-01 BMatC= 1.26D-07 BMatP= 7.22D-05
 IDIUse=1 WtCom= 1.00D+00 WtEn= 0.00D+00
 Coeff-Com: -0.360D-03-0.117D-02 0.693D-02 0.635D-01 0.931D+00
 Coeff:     -0.360D-03-0.117D-02 0.693D-02 0.635D-01 0.931D+00
 Gap=     0.247 Goal=   None    Shift=    0.000
 RMSDP=6.05D-06 MaxDP=6.97D-05 DE=-6.39D-05 OVMax= 8.54D-05

 Initial convergence to 1.0D-05 achieved.  Increase integral accuracy.
 Cycle   6  Pass 1  IDiag  1:
 E= -232.337030009258     Delta-E=        0.000065202453 Rises=F Damp=F
 DIIS: error= 7.67D-05 at cycle   1 NSaved=   1.
 NSaved= 1 IEnMin= 1 EnMin= -232.337030009258     IErMin= 1 ErrMin= 7.67D-05
 ErrMax= 7.67D-05 EMaxC= 1.00D-01 BMatC= 3.53D-07 BMatP= 3.53D-07
 IDIUse=1 WtCom= 1.00D+00 WtEn= 0.00D+00
 Coeff-Com:  0.100D+01
 Coeff:      0.100D+01
 Gap=     0.247 Goal=   None    Shift=    0.000
 RMSDP=6.05D-06 MaxDP=6.97D-05 DE= 6.52D-05 OVMax= 2.04D-04

 Cycle   7  Pass 1  IDiag  1:
 RMSU=  4.67D-05    CP:  1.00D+00
 E= -232.337030354321     Delta-E=       -0.000000345063 Rises=F Damp=F
 DIIS: error= 1.05D-05 at cycle   2 NSaved=   2.
 NSaved= 2 IEnMin= 2 EnMin= -232.337030354321     IErMin= 2 ErrMin= 1.05D-05
 ErrMax= 1.05D-05 EMaxC= 1.00D-01 BMatC= 6.57D-09 BMatP= 3.53D-07
 IDIUse=1 WtCom= 1.00D+00 WtEn= 0.00D+00
 Coeff-Com: -0.819D-02 0.101D+01
 Coeff:     -0.819D-02 0.101D+01
 Gap=     0.247 Goal=   None    Shift=    0.000
 RMSDP=1.81D-06 MaxDP=2.79D-05 DE=-3.45D-07 OVMax= 4.09D-05

 Cycle   8  Pass 1  IDiag  1:
 RMSU=  4.49D-07    CP:  1.00D+00  1.03D+00
 E= -232.337030352913     Delta-E=        0.000000001408 Rises=F Damp=F
 DIIS: error= 9.70D-06 at cycle   3 NSaved=   3.
 NSaved= 3 IEnMin= 2 EnMin= -232.337030354321     IErMin= 3 ErrMin= 9.70D-06
 ErrMax= 9.70D-06 EMaxC= 1.00D-01 BMatC= 8.51D-09 BMatP= 6.57D-09
 IDIUse=1 WtCom= 1.00D+00 WtEn= 0.00D+00
 Coeff-Com: -0.187D-01 0.548D+00 0.471D+00
 Coeff:     -0.187D-01 0.548D+00 0.471D+00
 Gap=     0.247 Goal=   None    Shift=    0.000
 RMSDP=2.71D-07 MaxDP=5.35D-06 DE= 1.41D-09 OVMax= 2.34D-05

 Cycle   9  Pass 1  IDiag  1:
 RMSU=  1.45D-07    CP:  1.00D+00  1.03D+00  7.23D-01
 E= -232.337030361089     Delta-E=       -0.000000008176 Rises=F Damp=F
 DIIS: error= 1.02D-06 at cycle   4 NSaved=   4.
 NSaved= 4 IEnMin= 4 EnMin= -232.337030361089     IErMin= 4 ErrMin= 1.02D-06
 ErrMax= 1.02D-06 EMaxC= 1.00D-01 BMatC= 1.01D-10 BMatP= 6.57D-09
 IDIUse=1 WtCom= 1.00D+00 WtEn= 0.00D+00
 Coeff-Com: -0.616D-02 0.150D+00 0.163D+00 0.693D+00
 Coeff:     -0.616D-02 0.150D+00 0.163D+00 0.693D+00
 Gap=     0.247 Goal=   None    Shift=    0.000
 RMSDP=4.08D-08 MaxDP=8.16D-07 DE=-8.18D-09 OVMax= 4.00D-06

 Cycle  10  Pass 1  IDiag  1:
 RMSU=  2.50D-08    CP:  1.00D+00  1.03D+00  7.43D-01  9.23D-01
 E= -232.337030361175     Delta-E=       -0.000000000086 Rises=F Damp=F
 DIIS: error= 3.54D-07 at cycle   5 NSaved=   5.
 NSaved= 5 IEnMin= 5 EnMin= -232.337030361175     IErMin= 5 ErrMin= 3.54D-07
 ErrMax= 3.54D-07 EMaxC= 1.00D-01 BMatC= 1.29D-11 BMatP= 1.01D-10
 IDIUse=1 WtCom= 1.00D+00 WtEn= 0.00D+00
 Coeff-Com: -0.154D-02 0.314D-01 0.388D-01 0.298D+00 0.633D+00
 Coeff:     -0.154D-02 0.314D-01 0.388D-01 0.298D+00 0.633D+00
 Gap=     0.247 Goal=   None    Shift=    0.000
 RMSDP=1.32D-08 MaxDP=4.21D-07 DE=-8.58D-11 OVMax= 1.36D-06

 Cycle  11  Pass 1  IDiag  1:
 RMSU=  7.09D-09    CP:  1.00D+00  1.03D+00  7.48D-01  9.41D-01  8.04D-01
 E= -232.337030361186     Delta-E=       -0.000000000011 Rises=F Damp=F
 DIIS: error= 1.02D-07 at cycle   6 NSaved=   6.
 NSaved= 6 IEnMin= 6 EnMin= -232.337030361186     IErMin= 6 ErrMin= 1.02D-07
 ErrMax= 1.02D-07 EMaxC= 1.00D-01 BMatC= 1.72D-12 BMatP= 1.29D-11
 IDIUse=1 WtCom= 1.00D+00 WtEn= 0.00D+00
 Coeff-Com: -0.335D-04-0.258D-02-0.657D-03 0.655D-01 0.316D+00 0.622D+00
 Coeff:     -0.335D-04-0.258D-02-0.657D-03 0.655D-01 0.316D+00 0.622D+00
 Gap=     0.247 Goal=   None    Shift=    0.000
 RMSDP=5.25D-09 MaxDP=1.29D-07 DE=-1.10D-11 OVMax= 3.37D-07

 SCF Done:  E(RB3LYP) =  -232.337030361     A.U. after   11 cycles
             Convg  =    0.5249D-08             -V/T =  2.0051
 KE= 2.311651174841D+02 PE=-9.478786464751D+02 EE= 2.796997807407D+02
 Leave Link  502 at Mon Jan 18 15:41:38 2016, MaxMem=  134217728 cpu:     167.8
 (Enter /apps/Gausian/g09/l801.exe)
 ExpMin= 9.52D-02 ExpMax= 1.36D+04 ExpMxC= 4.63D+02 IAcc=3 IRadAn=         5 AccDes= 0.00D+00
 HarFok:  IExCor=  205 AccDes= 0.00D+00 IRadAn=         5 IDoV=-2
 ScaDFX=  1.000000  1.000000  1.000000  1.000000
 Largest valence mixing into a core orbital is  7.66D-05
 Largest core mixing into a valence orbital is  1.65D-05
 Range of M.O.s used for correlation:     7   222
 NBasis=   222 NAE=    21 NBE=    21 NFC=     6 NFV=     0
 NROrb=    216 NOA=    15 NOB=    15 NVA=   201 NVB=   201

 **** Warning!!: The largest alpha MO coefficient is  0.80989155D+02

 Leave Link  801 at Mon Jan 18 15:41:38 2016, MaxMem=  134217728 cpu:       0.5
 (Enter /apps/Gausian/g09/l914.exe)
 RHF ground state
 MDV=   134217728 DFT=T DoStab=F Mixed=T DoRPA=T DoScal=F NonHer=T
 Would need an additional  1411700000 words for in-memory AO integral storage.
 Making orbital integer symmetry assigments:
    20 initial guesses have been made.
 Convergence on wavefunction:    0.000001000000000
 Davidson Disk Diagonalization:  ConvIn= 1.00D-06 SkipCon=T Conv= 1.00D-06.
 Max sub-space:   200 roots to seek:    20 dimension of matrix:   6030
 Iteration     1 Dimension    20 NMult    20
 CISAX:  IP=  1 NPass=   1 NMax=    20.
 CISAX will form    20 AO SS matrices at one time.
 NMat=    20 NSing=    20.
 Symmetry not used in FoFDir.
 MinBra= 0 MaxBra= 3 Meth= 1.
 IRaf=       0 NMat=  20 IRICut=       1 DoRegI=T DoRafI=F ISym2E= 0 JSym2E=0.
 CISAX:  IP=  1 NPass=   1 NMax=    20.
 CISAX will form    20 AO SS matrices at one time.
 NMat=    20 NSing=    20.
 New state      1 was old state      2
 New state      2 was old state      1
 New state      3 was old state      5
 No map to state      4
 No map to state      5
 Excitation Energies [eV] at current iteration:
 Root      1 :     5.585722585105379
 Root      2 :     6.958107068625098
 Root      3 :     7.296624890686004
 Root      4 :     7.296663290366354
 Root      5 :     7.716951168748953
 Iteration     2 Dimension    30 NMult    30
 CISAX:  IP=  1 NPass=   1 NMax=    10.
 CISAX will form    10 AO SS matrices at one time.
 NMat=    10 NSing=    10.
 CISAX:  IP=  1 NPass=   1 NMax=    10.
 CISAX will form    10 AO SS matrices at one time.
 NMat=    10 NSing=    10.
 Root      1 not converged, maximum delta is    0.016371672986004
 Root      2 not converged, maximum delta is    0.045547759493087
 Root      3 not converged, maximum delta is    0.030944082191928
 Root      4 not converged, maximum delta is    0.030941296232377
 Root      5 not converged, maximum delta is    0.038111801643365
 Excitation Energies [eV] at current iteration:
 Root      1 :     5.502737922189539   Change is   -0.082984662915841
 Root      2 :     6.184634156185218   Change is   -0.773472912439881
 Root      3 :     7.262308525129011   Change is   -0.034316365556992
 Root      4 :     7.262351126203579   Change is   -0.034312164162775
 Root      5 :     7.670131852672314   Change is   -0.046819316076640
 Iteration     3 Dimension    40 NMult    40
 CISAX:  IP=  1 NPass=   1 NMax=    10.
 CISAX will form    10 AO SS matrices at one time.
 NMat=    10 NSing=    10.
 CISAX:  IP=  1 NPass=   1 NMax=    10.
 CISAX will form    10 AO SS matrices at one time.
 NMat=    10 NSing=    10.
 Root      1 not converged, maximum delta is    0.001916798446901
 Root      2 not converged, maximum delta is    0.011083681908936
 Root      3 not converged, maximum delta is    0.002666829255736
 Root      4 not converged, maximum delta is    0.002667190276240
 Root      5 not converged, maximum delta is    0.001186182763587
 Excitation Energies [eV] at current iteration:
 Root      1 :     5.501707616797350   Change is   -0.001030305392189
 Root      2 :     6.169571343201421   Change is   -0.015062812983797
 Root      3 :     7.261351839595383   Change is   -0.000956685533629
 Root      4 :     7.261394613592529   Change is   -0.000956512611049
 Root      5 :     7.669533814879657   Change is   -0.000598037792656
 Iteration     4 Dimension    50 NMult    50
 CISAX:  IP=  1 NPass=   1 NMax=    10.
 CISAX will form    10 AO SS matrices at one time.
 NMat=    10 NSing=    10.
 CISAX:  IP=  1 NPass=   1 NMax=    10.
 CISAX will form    10 AO SS matrices at one time.
 NMat=    10 NSing=    10.
 Root      1 not converged, maximum delta is    0.000583960690827
 Root      2 not converged, maximum delta is    0.001363237175871
 Root      3 not converged, maximum delta is    0.000626260832126
 Root      4 not converged, maximum delta is    0.000626633782946
 Root      5 not converged, maximum delta is    0.000217347754530
 Excitation Energies [eV] at current iteration:
 Root      1 :     5.501654832142787   Change is   -0.000052784654563
 Root      2 :     6.168721723935924   Change is   -0.000849619265497
 Root      3 :     7.261264525249102   Change is   -0.000087314346281
 Root      4 :     7.261307315802105   Change is   -0.000087297790425
 Root      5 :     7.669517127881000   Change is   -0.000016686998658
 Iteration     5 Dimension    60 NMult    60
 CISAX:  IP=  1 NPass=   1 NMax=    10.
 CISAX will form    10 AO SS matrices at one time.
 NMat=    10 NSing=    10.
 CISAX:  IP=  1 NPass=   1 NMax=    10.
 CISAX will form    10 AO SS matrices at one time.
 NMat=    10 NSing=    10.
 Root      1 not converged, maximum delta is    0.000108819126802
 Root      2 not converged, maximum delta is    0.000464730844226
 Root      3 not converged, maximum delta is    0.000238003696764
 Root      4 not converged, maximum delta is    0.000238083158102
 Root      5 not converged, maximum delta is    0.000051392818368
 Excitation Energies [eV] at current iteration:
 Root      1 :     5.501651608796049   Change is   -0.000003223346738
 Root      2 :     6.168673881753187   Change is   -0.000047842182737
 Root      3 :     7.261254012675434   Change is   -0.000010512573668
 Root      4 :     7.261296802339380   Change is   -0.000010513462724
 Root      5 :     7.669516632504306   Change is   -0.000000495376694
 Iteration     6 Dimension    70 NMult    70
 CISAX:  IP=  1 NPass=   1 NMax=    10.
 CISAX will form    10 AO SS matrices at one time.
 NMat=    10 NSing=    10.
 CISAX:  IP=  1 NPass=   1 NMax=    10.
 CISAX will form    10 AO SS matrices at one time.
 NMat=    10 NSing=    10.
 Root      1 not converged, maximum delta is    0.000024092151196
 Root      2 not converged, maximum delta is    0.000108781845943
 Root      3 not converged, maximum delta is    0.000074745710449
 Root      4 not converged, maximum delta is    0.000074713579625
 Root      5 not converged, maximum delta is    0.000041819893971
 Excitation Energies [eV] at current iteration:
 Root      1 :     5.501651428420901   Change is   -0.000000180375148
 Root      2 :     6.168671393094255   Change is   -0.000002488658932
 Root      3 :     7.261252543680201   Change is   -0.000001468995232
 Root      4 :     7.261295333307214   Change is   -0.000001469032167
 Root      5 :     7.669516542787306   Change is   -0.000000089717001
 Iteration     7 Dimension    80 NMult    80
 CISAX:  IP=  1 NPass=   1 NMax=    10.
 CISAX will form    10 AO SS matrices at one time.
 NMat=    10 NSing=    10.
 CISAX:  IP=  1 NPass=   1 NMax=    10.
 CISAX will form    10 AO SS matrices at one time.
 NMat=    10 NSing=    10.
 Root      1 not converged, maximum delta is    0.000003856363090
 Root      2 not converged, maximum delta is    0.000020850037175
 Root      3 not converged, maximum delta is    0.000022349400424
 Root      4 not converged, maximum delta is    0.000022329149979
 Root      5 not converged, maximum delta is    0.000009691777843
 Excitation Energies [eV] at current iteration:
 Root      1 :     5.501651423670105   Change is   -0.000000004750796
 Root      2 :     6.168671273059821   Change is   -0.000000120034434
 Root      3 :     7.261252439235705   Change is   -0.000000104444496
 Root      4 :     7.261295228897912   Change is   -0.000000104409302
 Root      5 :     7.669516524248887   Change is   -0.000000018538418
 Iteration     8 Dimension    90 NMult    90
 CISAX:  IP=  1 NPass=   1 NMax=    10.
 CISAX will form    10 AO SS matrices at one time.
 NMat=    10 NSing=    10.
 CISAX:  IP=  1 NPass=   1 NMax=    10.
 CISAX will form    10 AO SS matrices at one time.
 NMat=    10 NSing=    10.
 Root      1 has converged.
 Root      2 not converged, maximum delta is    0.000004040484657
 Root      3 not converged, maximum delta is    0.000004557254869
 Root      4 not converged, maximum delta is    0.000004554266514
 Root      5 not converged, maximum delta is    0.000001877754798
 Excitation Energies [eV] at current iteration:
 Root      1 :     5.501651423579705   Change is   -0.000000000090400
 Root      2 :     6.168671269495935   Change is   -0.000000003563887
 Root      3 :     7.261252431313419   Change is   -0.000000007922286
 Root      4 :     7.261295220985452   Change is   -0.000000007912460
 Root      5 :     7.669516522359038   Change is   -0.000000001889849
 Iteration     9 Dimension    98 NMult    98
 CISAX:  IP=  1 NPass=   1 NMax=     8.
 CISAX will form     8 AO SS matrices at one time.
 NMat=     8 NSing=     8.
 CISAX:  IP=  1 NPass=   1 NMax=     8.
 CISAX will form     8 AO SS matrices at one time.
 NMat=     8 NSing=     8.
 Root      1 has converged.
 Root      2 has converged.
 Root      3 not converged, maximum delta is    0.000001585441642
 Root      4 not converged, maximum delta is    0.000001584377447
 Root      5 has converged.
 Excitation Energies [eV] at current iteration:
 Root      1 :     5.501651423579709   Change is    0.000000000000004
 Root      2 :     6.168671269254030   Change is   -0.000000000241904
 Root      3 :     7.261252430719915   Change is   -0.000000000593504
 Root      4 :     7.261295220392620   Change is   -0.000000000592832
 Root      5 :     7.669516522291510   Change is   -0.000000000067528
 Iteration    10 Dimension   102 NMult   102
 CISAX:  IP=  1 NPass=   1 NMax=     4.
 CISAX will form     4 AO SS matrices at one time.
 NMat=     4 NSing=     4.
 CISAX:  IP=  1 NPass=   1 NMax=     4.
 CISAX will form     4 AO SS matrices at one time.
 NMat=     4 NSing=     4.
 Root      1 has converged.
 Root      2 has converged.
 Root      3 has converged.
 Root      4 has converged.
 Root      5 has converged.
 Excitation Energies [eV] at current iteration:
 Root      1 :     5.501651423579681   Change is   -0.000000000000028
 Root      2 :     6.168671269254009   Change is   -0.000000000000021
 Root      3 :     7.261252430679848   Change is   -0.000000000040067
 Root      4 :     7.261295220352725   Change is   -0.000000000039895
 Root      5 :     7.669516522291526   Change is    0.000000000000017
 Convergence achieved on expansion vectors.
 ***********************************************************************
 Excited states from <AA,BB:AA,BB> singles matrix:
 ***********************************************************************
 
 1PDM for each excited state written to RWF  633
 Ground to excited state transition densities written to RWF  633
 Ground to excited state transition electric dipole moments (Au):
       state          X           Y           Z        Dip. S.      Osc.
         1         0.0000      0.0001      0.0000      0.0000      0.0000
         2        -0.0003      0.0000      0.0000      0.0000      0.0000
         3         0.0000      0.0000      0.0000      0.0000      0.0000
         4         0.0000      0.0000      0.0000      0.0000      0.0000
         5         0.0000      0.0000      0.0000      0.0000      0.0000
 Ground to excited state transition velocity dipole moments (Au):
       state          X           Y           Z        Dip. S.      Osc.
         1         0.0000      0.0000      0.0000      0.0000      0.0000
         2         0.0001      0.0000      0.0000      0.0000      0.0000
         3         0.0000      0.0000      0.0000      0.0000      0.0000
         4         0.0000      0.0000      0.0000      0.0000      0.0000
         5         0.0000      0.0000      0.0000      0.0000      0.0000
 Ground to excited state transition magnetic dipole moments (Au):
       state          X           Y           Z
         1         0.0000      0.0000      0.0000
         2         0.0000      0.0000      0.0000
         3         0.0000     -0.2300      0.0000
         4         0.2300      0.0000      0.0000
         5         0.0000      0.0000      0.0000
 Ground to excited state transition velocity quadrupole moments (Au):
       state          XX          YY          ZZ          XY          XZ          YZ
         1         0.0000      0.0000      0.0000      0.0000      0.0000      0.0000
         2         0.0000      0.0000      0.0000      0.0000      0.0000      0.0000
         3         0.0000      0.0000      0.0000      0.0000      0.2056      0.0000
         4         0.0000      0.0000      0.0000      0.0000      0.0000      0.2055
         5         0.0000      0.0000      0.0000      0.0000      0.0000      0.0000
 <0|del|b> * <b|rxdel|0> + <0|del|b> * <b|delr+rdel|0>
 Rotatory Strengths (R) in cgs (10**-40 erg-esu-cm/Gauss)
       state          XX          YY          ZZ    R(velocity)
         1         0.0000      0.0000      0.0000      0.0000
         2         0.0000      0.0000      0.0000      0.0000
         3         0.0000      0.0000      0.0000      0.0000
         4         0.0000      0.0000      0.0000      0.0000
         5         0.0000      0.0000      0.0000      0.0000
 1/2[<0|r|b>*<b|rxdel|0> + (<0|rxdel|b>*<b|r|0>)*]
 Rotatory Strengths (R) in cgs (10**-40 erg-esu-cm/Gauss)
       state          XX          YY          ZZ     R(length)
         1         0.0000      0.0000      0.0000      0.0000
         2         0.0000      0.0000      0.0000      0.0000
         3         0.0000      0.0000      0.0000      0.0000
         4         0.0000      0.0000      0.0000      0.0000
         5         0.0000      0.0000      0.0000      0.0000
  1/2[<0|del|b>*<b|r|0> + (<0|r|b>*<b|del|0>)*] (Au)
       state          X           Y           Z        Dip. S.   Osc.(frdel)
         1         0.0000      0.0000      0.0000      0.0000      0.0000
         2         0.0000      0.0000      0.0000      0.0000      0.0000
         3         0.0000      0.0000      0.0000      0.0000      0.0000
         4         0.0000      0.0000      0.0000      0.0000      0.0000
         5         0.0000      0.0000      0.0000      0.0000      0.0000

 Excitation energies and oscillator strengths:
 
 Excited state symmetry could not be determined.
 Excited State   1:      Singlet-?Sym    5.5017 eV  225.36 nm  f=0.0000  <S**2>=0.000
      20 -> 22         0.49972
      21 -> 23         0.49968
 This state for optimization and/or second-order correction.
 Total Energy, E(TD-HF/TD-KS) =  -232.134848383    
 Copying the excited state density for this state as the 1-particle RhoCI density.
 
 Excited state symmetry could not be determined.
 Excited State   2:      Singlet-?Sym    6.1687 eV  200.99 nm  f=0.0000  <S**2>=0.000
      20 -> 23        -0.49800
      21 -> 22         0.49814
 
 Excited state symmetry could not be determined.
 Excited State   3:      Singlet-?Sym    7.2613 eV  170.75 nm  f=0.0000  <S**2>=0.000
      21 -> 24         0.70525
 
 Excited state symmetry could not be determined.
 Excited State   4:      Singlet-?Sym    7.2613 eV  170.75 nm  f=0.0000  <S**2>=0.000
      20 -> 24         0.70525
 
 Excited state symmetry could not be determined.
 Excited State   5:      Singlet-?Sym    7.6695 eV  161.66 nm  f=0.0000  <S**2>=0.000
      18 -> 23        -0.49809
      19 -> 22         0.49916
 SavETr:  write IOETrn=   770 NScale= 10 NData=  16 NLR=1 LETran=     100.
 The selected state is a singlet
 CISAX:  IP=  1 NPass=   1 NMax=     1.
 CISAX will form     1 AO SS matrices at one time.
 NMat=     1 NSing=     1.
 CISAX:  IP=  1 NPass=   1 NMax=     1.
 CISAX will form     1 AO SS matrices at one time.
 NMat=     1 NSing=     1.
 Leave Link  914 at Mon Jan 18 16:09:00 2016, MaxMem=  134217728 cpu:    1450.2
 (Enter /apps/Gausian/g09/l1002.exe)
 Minotr:  Closed shell wavefunction.
          Computing CIS/TD-HF/TD-KS derivatives.
          Using Z-Vector for PSCF gradient.
          Skipping F1 and S1 gradient terms here.
          IDoAtm=111111111111
          Frozen-core window.
          Direct CPHF calculation.
          Differentiating once with respect to electric field.
                with respect to dipole field.
          Differentiating once with respect to nuclear coordinates.
          Requested convergence is 1.0D-10 RMS, and 1.0D-09 maximum.
          NewPWx=F KeepS1=T KeepF1=T KeepIn=T MapXYZ=F SortEE=F KeepMc=T.
          MDV=     134217604 using IRadAn=       0.
 Generate precomputed XC quadrature information.
          Solving linear equations separately, MaxMat=       0.
          There are     1 degrees of freedom in the 1st order CPHF.  IDoFFX=0.
 Symmetry not used in FoFDir.
 MinBra= 0 MaxBra= 3 Meth= 1.
 IRaf=       0 NMat=   1 IRICut=       1 DoRegI=T DoRafI=F ISym2E= 0 JSym2E=0.
 LinEq1:  Iter=  0 NonCon=     1 RMS=1.78D-03 Max=3.03D-02
 AX will form     1 AO Fock derivatives at one time.
 LinEq1:  Iter=  1 NonCon=     1 RMS=4.48D-04 Max=1.12D-02
 LinEq1:  Iter=  2 NonCon=     1 RMS=1.35D-04 Max=2.99D-03
 LinEq1:  Iter=  3 NonCon=     1 RMS=7.85D-06 Max=9.11D-05
 LinEq1:  Iter=  4 NonCon=     1 RMS=9.52D-07 Max=1.93D-05
 LinEq1:  Iter=  5 NonCon=     1 RMS=5.70D-07 Max=1.84D-05
 LinEq1:  Iter=  6 NonCon=     1 RMS=5.93D-08 Max=8.18D-07
 LinEq1:  Iter=  7 NonCon=     1 RMS=5.42D-09 Max=8.93D-08
 LinEq1:  Iter=  8 NonCon=     1 RMS=2.13D-09 Max=8.11D-08
 LinEq1:  Iter=  9 NonCon=     1 RMS=5.13D-10 Max=8.40D-09
 LinEq1:  Iter= 10 NonCon=     0 RMS=2.26D-11 Max=3.43D-10
 Linear equations converged to 1.000D-10 1.000D-09 after    10 iterations.
 End of Minotr Frequency-dependent properties file   721 does not exist.
 End of Minotr Frequency-dependent properties file   722 does not exist.
 Leave Link 1002 at Mon Jan 18 16:14:05 2016, MaxMem=  134217728 cpu:     248.3
 (Enter /apps/Gausian/g09/l601.exe)
 Copying SCF densities to generalized density rwf, IOpCl= 0 IROHF=0.

 **********************************************************************

            Population analysis using the SCF density.

 **********************************************************************

 Alpha  occ. eigenvalues --  -10.17578 -10.17553 -10.17553 -10.17492 -10.17492
 Alpha  occ. eigenvalues --  -10.17463  -0.86157  -0.75071  -0.75071  -0.60631
 Alpha  occ. eigenvalues --   -0.60631  -0.52912  -0.46127  -0.45357  -0.42572
 Alpha  occ. eigenvalues --   -0.42572  -0.37557  -0.34783  -0.34783  -0.26025
 Alpha  occ. eigenvalues --   -0.26025
 Alpha virt. eigenvalues --   -0.01299  -0.01298   0.04324   0.07579   0.07580
 Alpha virt. eigenvalues --    0.10381   0.10381   0.12621   0.14316   0.14836
 Alpha virt. eigenvalues --    0.20457   0.20842   0.21529   0.21529   0.23191
 Alpha virt. eigenvalues --    0.23194   0.24635   0.24643   0.27011   0.27014
 Alpha virt. eigenvalues --    0.32558   0.32645   0.32655   0.35748   0.35755
 Alpha virt. eigenvalues --    0.38179   0.40397   0.40965   0.40965   0.43602
 Alpha virt. eigenvalues --    0.43605   0.43628   0.46143   0.46424   0.48998
 Alpha virt. eigenvalues --    0.49002   0.49186   0.50821   0.50823   0.64405
 Alpha virt. eigenvalues --    0.64413   0.65290   0.68593   0.69264   0.74729
 Alpha virt. eigenvalues --    0.74731   0.75359   0.75360   0.80143   0.84688
 Alpha virt. eigenvalues --    0.84688   0.85015   0.88646   0.88963   1.00012
 Alpha virt. eigenvalues --    1.00014   1.00681   1.00706   1.05100   1.05103
 Alpha virt. eigenvalues --    1.16682   1.17604   1.17606   1.20320   1.20327
 Alpha virt. eigenvalues --    1.22457   1.22458   1.25192   1.25194   1.28553
 Alpha virt. eigenvalues --    1.37778   1.37869   1.38276   1.45286   1.45289
 Alpha virt. eigenvalues --    1.47693   1.47698   1.48287   1.48287   1.59972
 Alpha virt. eigenvalues --    1.61034   1.64593   1.66436   1.66436   1.67508
 Alpha virt. eigenvalues --    1.69170   1.69172   1.70557   1.70560   1.76336
 Alpha virt. eigenvalues --    1.83955   1.90016   1.90016   2.03074   2.03074
 Alpha virt. eigenvalues --    2.06305   2.07002   2.07004   2.08406   2.16193
 Alpha virt. eigenvalues --    2.16193   2.21733   2.23161   2.23162   2.31773
 Alpha virt. eigenvalues --    2.46151   2.47652   2.47653   2.54441   2.55828
 Alpha virt. eigenvalues --    2.55828   2.56436   2.58456   2.65790   2.65791
 Alpha virt. eigenvalues --    2.66528   2.66530   2.66694   2.67856   2.67856
 Alpha virt. eigenvalues --    2.74069   2.74686   2.74686   2.80111   2.80374
 Alpha virt. eigenvalues --    2.80375   2.83944   2.84020   2.84021   2.84447
 Alpha virt. eigenvalues --    2.84448   2.89630   3.00318   3.08931   3.08933
 Alpha virt. eigenvalues --    3.09154   3.09161   3.13162   3.13164   3.14606
 Alpha virt. eigenvalues --    3.14608   3.18417   3.21848   3.21852   3.24179
 Alpha virt. eigenvalues --    3.25996   3.25998   3.30557   3.34986   3.37609
 Alpha virt. eigenvalues --    3.37609   3.38626   3.43959   3.43963   3.49288
 Alpha virt. eigenvalues --    3.50598   3.53318   3.53318   3.60621   3.63504
 Alpha virt. eigenvalues --    3.63505   3.76280   3.76602   3.76604   3.79949
 Alpha virt. eigenvalues --    3.85169   3.99435   3.99436   4.07617   4.07935
 Alpha virt. eigenvalues --    4.07936   4.11831   4.20381   4.21264   4.21264
 Alpha virt. eigenvalues --    4.23477   4.23479   4.29964   4.29965   4.30635
 Alpha virt. eigenvalues --    4.30635   4.63978   4.63980   4.64434   4.66809
 Alpha virt. eigenvalues --    4.83297   4.83297   4.89133   4.89137   5.22225
 Alpha virt. eigenvalues --    5.22225   5.27429   5.29571   5.42934   5.60691
 Alpha virt. eigenvalues --   21.83651  22.54952  22.54952  22.65064  22.65064
 Alpha virt. eigenvalues --   23.07666
          Condensed to atoms (all electrons):
              1          2          3          4          5          6
     1  C    4.860286   0.417931  -0.043357  -0.001640   0.510834  -0.046204
     2  H    0.417931   0.566206  -0.001640   0.000092  -0.046291  -0.007167
     3  C   -0.043357  -0.001640   4.860286   0.417931  -0.035738   0.008554
     4  H   -0.001640   0.000092   0.417931   0.566206   0.008576  -0.000301
     5  C    0.510834  -0.046291  -0.035738   0.008576   4.859949   0.417783
     6  H   -0.046204  -0.007167   0.008554  -0.000301   0.417783   0.566152
     7  C    0.510834  -0.046291  -0.035738   0.008576  -0.035742   0.008558
     8  H   -0.046204  -0.007167   0.008554  -0.000301   0.008558  -0.000301
     9  C   -0.035738   0.008576   0.510834  -0.046291   0.510920  -0.046200
    10  H    0.008554  -0.000301  -0.046204  -0.007167  -0.046200  -0.007158
    11  C   -0.035738   0.008576   0.510834  -0.046291  -0.043359  -0.001633
    12  H    0.008554  -0.000301  -0.046204  -0.007167  -0.001633   0.000092
              7          8          9         10         11         12
     1  C    0.510834  -0.046204  -0.035738   0.008554  -0.035738   0.008554
     2  H   -0.046291  -0.007167   0.008576  -0.000301   0.008576  -0.000301
     3  C   -0.035738   0.008554   0.510834  -0.046204   0.510834  -0.046204
     4  H    0.008576  -0.000301  -0.046291  -0.007167  -0.046291  -0.007167
     5  C   -0.035742   0.008558   0.510920  -0.046200  -0.043359  -0.001633
     6  H    0.008558  -0.000301  -0.046200  -0.007158  -0.001633   0.000092
     7  C    4.859949   0.417783  -0.043359  -0.001633   0.510920  -0.046200
     8  H    0.417783   0.566151  -0.001633   0.000092  -0.046200  -0.007158
     9  C   -0.043359  -0.001633   4.859949   0.417783  -0.035742   0.008558
    10  H   -0.001633   0.000092   0.417783   0.566151   0.008558  -0.000301
    11  C    0.510920  -0.046200  -0.035742   0.008558   4.859949   0.417783
    12  H   -0.046200  -0.007158   0.008558  -0.000301   0.417783   0.566152
 Mulliken atomic charges:
              1
     1  C   -0.108111
     2  H    0.107776
     3  C   -0.108111
     4  H    0.107776
     5  C   -0.107656
     6  H    0.107824
     7  C   -0.107656
     8  H    0.107824
     9  C   -0.107656
    10  H    0.107824
    11  C   -0.107656
    12  H    0.107824
 Sum of Mulliken atomic charges =   0.00000
 Mulliken charges with hydrogens summed into heavy atoms:
              1
     1  C   -0.000335
     3  C   -0.000335
     5  C    0.000167
     7  C    0.000167
     9  C    0.000167
    11  C    0.000167
 Sum of Mulliken charges with hydrogens summed into heavy atoms =   0.00000
 Electronic spatial extent (au):  <R**2>=            454.8134
 Charge=              0.0000 electrons
 Dipole moment (field-independent basis, Debye):
    X=              0.0000    Y=              0.0000    Z=              0.0000  Tot=              0.0000
 Quadrupole moment (field-independent basis, Debye-Ang):
   XX=            -32.1845   YY=            -32.1845   ZZ=            -39.7829
   XY=              0.0000   XZ=              0.0000   YZ=              0.0000
 Traceless Quadrupole moment (field-independent basis, Debye-Ang):
   XX=              2.5328   YY=              2.5328   ZZ=             -5.0656
   XY=              0.0000   XZ=              0.0000   YZ=              0.0000
 Octapole moment (field-independent basis, Debye-Ang**2):
  XXX=              0.0000  YYY=              0.0000  ZZZ=              0.0000  XYY=              0.0000
  XXY=              0.0000  XXZ=              0.0000  XZZ=              0.0000  YZZ=              0.0000
  YYZ=              0.0000  XYZ=              0.0000
 Hexadecapole moment (field-independent basis, Debye-Ang**3):
 XXXX=           -273.6613 YYYY=           -273.6618 ZZZZ=            -47.8645 XXXY=              0.0000
 XXXZ=              0.0000 YYYX=              0.0000 YYYZ=              0.0000 ZZZX=              0.0000
 ZZZY=              0.0000 XXYY=            -91.2190 XXZZ=            -63.5575 YYZZ=            -63.5569
 XXYZ=              0.0000 YYXZ=              0.0000 ZZXY=              0.0000
 N-N= 2.046767178891D+02 E-N=-9.478786284299D+02  KE= 2.311651174841D+02
 No NMR shielding tensors so no spin-rotation constants.
 Leave Link  601 at Mon Jan 18 16:14:06 2016, MaxMem=  134217728 cpu:       0.2
 (Enter /apps/Gausian/g09/l701.exe)
 Compute integral first derivatives.
 ... and contract with generalized density number  6.
   1 Symmetry operations used in ECPInt.
 ECPInt:  NShTT=    4095 NPrTT=   12396 LenC2=    4075 LenP2D=   10437.
 LDataN:  DoStor=T MaxTD1= 7 Len=  274
 Leave Link  701 at Mon Jan 18 16:14:06 2016, MaxMem=  134217728 cpu:       0.2
 (Enter /apps/Gausian/g09/l702.exe)
 L702 exits ... SP integral derivatives will be done elsewhere.
 Leave Link  702 at Mon Jan 18 16:14:06 2016, MaxMem=  134217728 cpu:       0.0
 (Enter /apps/Gausian/g09/l703.exe)
 Compute integral first derivatives, UseDBF=F ICtDFT=           0.
 Integral derivatives from FoFDir, PRISM(SPDF).
 Calling FoFJK, ICntrl=      5127 FMM=F ISym2X=0 I1Cent= 0 IOpClX= 0 NMat=1 NMatS=1 NMatT=0.
 FoFCou: FMM=F IPFlag=           0 FMFlag=      100000 FMFlg1=         800
         NFxFlg=           0 DoJE=F BraDBF=F KetDBF=F FulRan=T
         Omega=  0.000000  0.000000  1.000000  0.000000  0.000000 ICntrl=    5127 IOpCl=  0
         NMat0=    1 NMatS0=    1 NMatT0=    0 NMatD0=    1 NMtDS0=    0 NMtDT0=    0
         I1Cent=           0 NGrid=           0.
 Symmetry not used in FoFCou.
 Leave Link  703 at Mon Jan 18 16:15:52 2016, MaxMem=  134217728 cpu:      69.9
 (Enter /apps/Gausian/g09/l716.exe)
 Dipole        =-1.17416650D-07-7.59222818D-09-1.95207052D-15
 -------------------------------------------------------------------
 Center     Atomic                   Forces (Hartrees/Bohr)
 Number     Number              X              Y              Z
 -------------------------------------------------------------------
      1        6           0.039442751   -0.000000003    0.000000000
      2        1          -0.004187547    0.000000000    0.000000000
      3        6          -0.039442752    0.000000008    0.000000000
      4        1           0.004187524    0.000000000    0.000000000
      5        6           0.019736397    0.034132032    0.000000000
      6        1          -0.002091917   -0.003623399    0.000000000
      7        6           0.019736392   -0.034132032    0.000000000
      8        1          -0.002091919    0.003623399    0.000000000
      9        6          -0.019736379    0.034132030    0.000000000
     10        1           0.002091915   -0.003623394    0.000000000
     11        6          -0.019736382   -0.034132041    0.000000000
     12        1           0.002091916    0.003623399    0.000000000
 -------------------------------------------------------------------
 Cartesian Forces:  Max     0.039442752 RMS     0.016188675
 Leave Link  716 at Mon Jan 18 16:15:52 2016, MaxMem=  134217728 cpu:       0.0
 (Enter /apps/Gausian/g09/l103.exe)

 GradGradGradGradGradGradGradGradGradGradGradGradGradGradGradGradGradGrad
 Berny optimization.
 Internal  Forces:  Max     0.035272079 RMS     0.011831665
 Search for a local minimum.
 Step number   1 out of a maximum of   64
 All quantities printed in internal units (Hartrees-Bohrs-Radians)
 RMS Force = .11832D-01 SwitMx=.10000D-02 MixMth= 1
 Mixed Optimization -- RFO/linear search
 Second derivative matrix not updated -- first step.
 The second derivative matrix:
                          R1        R2        R3        R4        R5
           R1           0.35041
           R2           0.00000   0.48302
           R3           0.00000   0.00000   0.48302
           R4           0.00000   0.00000   0.00000   0.35041
           R5           0.00000   0.00000   0.00000   0.00000   0.48302
           R6           0.00000   0.00000   0.00000   0.00000   0.00000
           R7           0.00000   0.00000   0.00000   0.00000   0.00000
           R8           0.00000   0.00000   0.00000   0.00000   0.00000
           R9           0.00000   0.00000   0.00000   0.00000   0.00000
           R10          0.00000   0.00000   0.00000   0.00000   0.00000
           R11          0.00000   0.00000   0.00000   0.00000   0.00000
           R12          0.00000   0.00000   0.00000   0.00000   0.00000
           A1           0.00000   0.00000   0.00000   0.00000   0.00000
           A2           0.00000   0.00000   0.00000   0.00000   0.00000
           A3           0.00000   0.00000   0.00000   0.00000   0.00000
           A4           0.00000   0.00000   0.00000   0.00000   0.00000
           A5           0.00000   0.00000   0.00000   0.00000   0.00000
           A6           0.00000   0.00000   0.00000   0.00000   0.00000
           A7           0.00000   0.00000   0.00000   0.00000   0.00000
           A8           0.00000   0.00000   0.00000   0.00000   0.00000
           A9           0.00000   0.00000   0.00000   0.00000   0.00000
           A10          0.00000   0.00000   0.00000   0.00000   0.00000
           A11          0.00000   0.00000   0.00000   0.00000   0.00000
           A12          0.00000   0.00000   0.00000   0.00000   0.00000
           A13          0.00000   0.00000   0.00000   0.00000   0.00000
           A14          0.00000   0.00000   0.00000   0.00000   0.00000
           A15          0.00000   0.00000   0.00000   0.00000   0.00000
           A16          0.00000   0.00000   0.00000   0.00000   0.00000
           A17          0.00000   0.00000   0.00000   0.00000   0.00000
           A18          0.00000   0.00000   0.00000   0.00000   0.00000
           D1           0.00000   0.00000   0.00000   0.00000   0.00000
           D2           0.00000   0.00000   0.00000   0.00000   0.00000
           D3           0.00000   0.00000   0.00000   0.00000   0.00000
           D4           0.00000   0.00000   0.00000   0.00000   0.00000
           D5           0.00000   0.00000   0.00000   0.00000   0.00000
           D6           0.00000   0.00000   0.00000   0.00000   0.00000
           D7           0.00000   0.00000   0.00000   0.00000   0.00000
           D8           0.00000   0.00000   0.00000   0.00000   0.00000
           D9           0.00000   0.00000   0.00000   0.00000   0.00000
           D10          0.00000   0.00000   0.00000   0.00000   0.00000
           D11          0.00000   0.00000   0.00000   0.00000   0.00000
           D12          0.00000   0.00000   0.00000   0.00000   0.00000
           D13          0.00000   0.00000   0.00000   0.00000   0.00000
           D14          0.00000   0.00000   0.00000   0.00000   0.00000
           D15          0.00000   0.00000   0.00000   0.00000   0.00000
           D16          0.00000   0.00000   0.00000   0.00000   0.00000
           D17          0.00000   0.00000   0.00000   0.00000   0.00000
           D18          0.00000   0.00000   0.00000   0.00000   0.00000
           D19          0.00000   0.00000   0.00000   0.00000   0.00000
           D20          0.00000   0.00000   0.00000   0.00000   0.00000
           D21          0.00000   0.00000   0.00000   0.00000   0.00000
           D22          0.00000   0.00000   0.00000   0.00000   0.00000
           D23          0.00000   0.00000   0.00000   0.00000   0.00000
           D24          0.00000   0.00000   0.00000   0.00000   0.00000
                          R6        R7        R8        R9        R10
           R6           0.48302
           R7           0.00000   0.35041
           R8           0.00000   0.00000   0.48303
           R9           0.00000   0.00000   0.00000   0.35041
           R10          0.00000   0.00000   0.00000   0.00000   0.48303
           R11          0.00000   0.00000   0.00000   0.00000   0.00000
           R12          0.00000   0.00000   0.00000   0.00000   0.00000
           A1           0.00000   0.00000   0.00000   0.00000   0.00000
           A2           0.00000   0.00000   0.00000   0.00000   0.00000
           A3           0.00000   0.00000   0.00000   0.00000   0.00000
           A4           0.00000   0.00000   0.00000   0.00000   0.00000
           A5           0.00000   0.00000   0.00000   0.00000   0.00000
           A6           0.00000   0.00000   0.00000   0.00000   0.00000
           A7           0.00000   0.00000   0.00000   0.00000   0.00000
           A8           0.00000   0.00000   0.00000   0.00000   0.00000
           A9           0.00000   0.00000   0.00000   0.00000   0.00000
           A10          0.00000   0.00000   0.00000   0.00000   0.00000
           A11          0.00000   0.00000   0.00000   0.00000   0.00000
           A12          0.00000   0.00000   0.00000   0.00000   0.00000
           A13          0.00000   0.00000   0.00000   0.00000   0.00000
           A14          0.00000   0.00000   0.00000   0.00000   0.00000
           A15          0.00000   0.00000   0.00000   0.00000   0.00000
           A16          0.00000   0.00000   0.00000   0.00000   0.00000
           A17          0.00000   0.00000   0.00000   0.00000   0.00000
           A18          0.00000   0.00000   0.00000   0.00000   0.00000
           D1           0.00000   0.00000   0.00000   0.00000   0.00000
           D2           0.00000   0.00000   0.00000   0.00000   0.00000
           D3           0.00000   0.00000   0.00000   0.00000   0.00000
           D4           0.00000   0.00000   0.00000   0.00000   0.00000
           D5           0.00000   0.00000   0.00000   0.00000   0.00000
           D6           0.00000   0.00000   0.00000   0.00000   0.00000
           D7           0.00000   0.00000   0.00000   0.00000   0.00000
           D8           0.00000   0.00000   0.00000   0.00000   0.00000
           D9           0.00000   0.00000   0.00000   0.00000   0.00000
           D10          0.00000   0.00000   0.00000   0.00000   0.00000
           D11          0.00000   0.00000   0.00000   0.00000   0.00000
           D12          0.00000   0.00000   0.00000   0.00000   0.00000
           D13          0.00000   0.00000   0.00000   0.00000   0.00000
           D14          0.00000   0.00000   0.00000   0.00000   0.00000
           D15          0.00000   0.00000   0.00000   0.00000   0.00000
           D16          0.00000   0.00000   0.00000   0.00000   0.00000
           D17          0.00000   0.00000   0.00000   0.00000   0.00000
           D18          0.00000   0.00000   0.00000   0.00000   0.00000
           D19          0.00000   0.00000   0.00000   0.00000   0.00000
           D20          0.00000   0.00000   0.00000   0.00000   0.00000
           D21          0.00000   0.00000   0.00000   0.00000   0.00000
           D22          0.00000   0.00000   0.00000   0.00000   0.00000
           D23          0.00000   0.00000   0.00000   0.00000   0.00000
           D24          0.00000   0.00000   0.00000   0.00000   0.00000
                          R11       R12       A1        A2        A3
           R11          0.35041
           R12          0.00000   0.35041
           A1           0.00000   0.00000   0.16000
           A2           0.00000   0.00000   0.00000   0.16000
           A3           0.00000   0.00000   0.00000   0.00000   0.25000
           A4           0.00000   0.00000   0.00000   0.00000   0.00000
           A5           0.00000   0.00000   0.00000   0.00000   0.00000
           A6           0.00000   0.00000   0.00000   0.00000   0.00000
           A7           0.00000   0.00000   0.00000   0.00000   0.00000
           A8           0.00000   0.00000   0.00000   0.00000   0.00000
           A9           0.00000   0.00000   0.00000   0.00000   0.00000
           A10          0.00000   0.00000   0.00000   0.00000   0.00000
           A11          0.00000   0.00000   0.00000   0.00000   0.00000
           A12          0.00000   0.00000   0.00000   0.00000   0.00000
           A13          0.00000   0.00000   0.00000   0.00000   0.00000
           A14          0.00000   0.00000   0.00000   0.00000   0.00000
           A15          0.00000   0.00000   0.00000   0.00000   0.00000
           A16          0.00000   0.00000   0.00000   0.00000   0.00000
           A17          0.00000   0.00000   0.00000   0.00000   0.00000
           A18          0.00000   0.00000   0.00000   0.00000   0.00000
           D1           0.00000   0.00000   0.00000   0.00000   0.00000
           D2           0.00000   0.00000   0.00000   0.00000   0.00000
           D3           0.00000   0.00000   0.00000   0.00000   0.00000
           D4           0.00000   0.00000   0.00000   0.00000   0.00000
           D5           0.00000   0.00000   0.00000   0.00000   0.00000
           D6           0.00000   0.00000   0.00000   0.00000   0.00000
           D7           0.00000   0.00000   0.00000   0.00000   0.00000
           D8           0.00000   0.00000   0.00000   0.00000   0.00000
           D9           0.00000   0.00000   0.00000   0.00000   0.00000
           D10          0.00000   0.00000   0.00000   0.00000   0.00000
           D11          0.00000   0.00000   0.00000   0.00000   0.00000
           D12          0.00000   0.00000   0.00000   0.00000   0.00000
           D13          0.00000   0.00000   0.00000   0.00000   0.00000
           D14          0.00000   0.00000   0.00000   0.00000   0.00000
           D15          0.00000   0.00000   0.00000   0.00000   0.00000
           D16          0.00000   0.00000   0.00000   0.00000   0.00000
           D17          0.00000   0.00000   0.00000   0.00000   0.00000
           D18          0.00000   0.00000   0.00000   0.00000   0.00000
           D19          0.00000   0.00000   0.00000   0.00000   0.00000
           D20          0.00000   0.00000   0.00000   0.00000   0.00000
           D21          0.00000   0.00000   0.00000   0.00000   0.00000
           D22          0.00000   0.00000   0.00000   0.00000   0.00000
           D23          0.00000   0.00000   0.00000   0.00000   0.00000
           D24          0.00000   0.00000   0.00000   0.00000   0.00000
                          A4        A5        A6        A7        A8
           A4           0.16000
           A5           0.00000   0.16000
           A6           0.00000   0.00000   0.25000
           A7           0.00000   0.00000   0.00000   0.16000
           A8           0.00000   0.00000   0.00000   0.00000   0.25000
           A9           0.00000   0.00000   0.00000   0.00000   0.00000
           A10          0.00000   0.00000   0.00000   0.00000   0.00000
           A11          0.00000   0.00000   0.00000   0.00000   0.00000
           A12          0.00000   0.00000   0.00000   0.00000   0.00000
           A13          0.00000   0.00000   0.00000   0.00000   0.00000
           A14          0.00000   0.00000   0.00000   0.00000   0.00000
           A15          0.00000   0.00000   0.00000   0.00000   0.00000
           A16          0.00000   0.00000   0.00000   0.00000   0.00000
           A17          0.00000   0.00000   0.00000   0.00000   0.00000
           A18          0.00000   0.00000   0.00000   0.00000   0.00000
           D1           0.00000   0.00000   0.00000   0.00000   0.00000
           D2           0.00000   0.00000   0.00000   0.00000   0.00000
           D3           0.00000   0.00000   0.00000   0.00000   0.00000
           D4           0.00000   0.00000   0.00000   0.00000   0.00000
           D5           0.00000   0.00000   0.00000   0.00000   0.00000
           D6           0.00000   0.00000   0.00000   0.00000   0.00000
           D7           0.00000   0.00000   0.00000   0.00000   0.00000
           D8           0.00000   0.00000   0.00000   0.00000   0.00000
           D9           0.00000   0.00000   0.00000   0.00000   0.00000
           D10          0.00000   0.00000   0.00000   0.00000   0.00000
           D11          0.00000   0.00000   0.00000   0.00000   0.00000
           D12          0.00000   0.00000   0.00000   0.00000   0.00000
           D13          0.00000   0.00000   0.00000   0.00000   0.00000
           D14          0.00000   0.00000   0.00000   0.00000   0.00000
           D15          0.00000   0.00000   0.00000   0.00000   0.00000
           D16          0.00000   0.00000   0.00000   0.00000   0.00000
           D17          0.00000   0.00000   0.00000   0.00000   0.00000
           D18          0.00000   0.00000   0.00000   0.00000   0.00000
           D19          0.00000   0.00000   0.00000   0.00000   0.00000
           D20          0.00000   0.00000   0.00000   0.00000   0.00000
           D21          0.00000   0.00000   0.00000   0.00000   0.00000
           D22          0.00000   0.00000   0.00000   0.00000   0.00000
           D23          0.00000   0.00000   0.00000   0.00000   0.00000
           D24          0.00000   0.00000   0.00000   0.00000   0.00000
                          A9        A10       A11       A12       A13
           A9           0.16000
           A10          0.00000   0.16000
           A11          0.00000   0.00000   0.25000
           A12          0.00000   0.00000   0.00000   0.16000
           A13          0.00000   0.00000   0.00000   0.00000   0.25000
           A14          0.00000   0.00000   0.00000   0.00000   0.00000
           A15          0.00000   0.00000   0.00000   0.00000   0.00000
           A16          0.00000   0.00000   0.00000   0.00000   0.00000
           A17          0.00000   0.00000   0.00000   0.00000   0.00000
           A18          0.00000   0.00000   0.00000   0.00000   0.00000
           D1           0.00000   0.00000   0.00000   0.00000   0.00000
           D2           0.00000   0.00000   0.00000   0.00000   0.00000
           D3           0.00000   0.00000   0.00000   0.00000   0.00000
           D4           0.00000   0.00000   0.00000   0.00000   0.00000
           D5           0.00000   0.00000   0.00000   0.00000   0.00000
           D6           0.00000   0.00000   0.00000   0.00000   0.00000
           D7           0.00000   0.00000   0.00000   0.00000   0.00000
           D8           0.00000   0.00000   0.00000   0.00000   0.00000
           D9           0.00000   0.00000   0.00000   0.00000   0.00000
           D10          0.00000   0.00000   0.00000   0.00000   0.00000
           D11          0.00000   0.00000   0.00000   0.00000   0.00000
           D12          0.00000   0.00000   0.00000   0.00000   0.00000
           D13          0.00000   0.00000   0.00000   0.00000   0.00000
           D14          0.00000   0.00000   0.00000   0.00000   0.00000
           D15          0.00000   0.00000   0.00000   0.00000   0.00000
           D16          0.00000   0.00000   0.00000   0.00000   0.00000
           D17          0.00000   0.00000   0.00000   0.00000   0.00000
           D18          0.00000   0.00000   0.00000   0.00000   0.00000
           D19          0.00000   0.00000   0.00000   0.00000   0.00000
           D20          0.00000   0.00000   0.00000   0.00000   0.00000
           D21          0.00000   0.00000   0.00000   0.00000   0.00000
           D22          0.00000   0.00000   0.00000   0.00000   0.00000
           D23          0.00000   0.00000   0.00000   0.00000   0.00000
           D24          0.00000   0.00000   0.00000   0.00000   0.00000
                          A14       A15       A16       A17       A18
           A14          0.16000
           A15          0.00000   0.16000
           A16          0.00000   0.00000   0.25000
           A17          0.00000   0.00000   0.00000   0.16000
           A18          0.00000   0.00000   0.00000   0.00000   0.16000
           D1           0.00000   0.00000   0.00000   0.00000   0.00000
           D2           0.00000   0.00000   0.00000   0.00000   0.00000
           D3           0.00000   0.00000   0.00000   0.00000   0.00000
           D4           0.00000   0.00000   0.00000   0.00000   0.00000
           D5           0.00000   0.00000   0.00000   0.00000   0.00000
           D6           0.00000   0.00000   0.00000   0.00000   0.00000
           D7           0.00000   0.00000   0.00000   0.00000   0.00000
           D8           0.00000   0.00000   0.00000   0.00000   0.00000
           D9           0.00000   0.00000   0.00000   0.00000   0.00000
           D10          0.00000   0.00000   0.00000   0.00000   0.00000
           D11          0.00000   0.00000   0.00000   0.00000   0.00000
           D12          0.00000   0.00000   0.00000   0.00000   0.00000
           D13          0.00000   0.00000   0.00000   0.00000   0.00000
           D14          0.00000   0.00000   0.00000   0.00000   0.00000
           D15          0.00000   0.00000   0.00000   0.00000   0.00000
           D16          0.00000   0.00000   0.00000   0.00000   0.00000
           D17          0.00000   0.00000   0.00000   0.00000   0.00000
           D18          0.00000   0.00000   0.00000   0.00000   0.00000
           D19          0.00000   0.00000   0.00000   0.00000   0.00000
           D20          0.00000   0.00000   0.00000   0.00000   0.00000
           D21          0.00000   0.00000   0.00000   0.00000   0.00000
           D22          0.00000   0.00000   0.00000   0.00000   0.00000
           D23          0.00000   0.00000   0.00000   0.00000   0.00000
           D24          0.00000   0.00000   0.00000   0.00000   0.00000
                          D1        D2        D3        D4        D5
           D1           0.02295
           D2           0.00000   0.02295
           D3           0.00000   0.00000   0.02295
           D4           0.00000   0.00000   0.00000   0.02295
           D5           0.00000   0.00000   0.00000   0.00000   0.02295
           D6           0.00000   0.00000   0.00000   0.00000   0.00000
           D7           0.00000   0.00000   0.00000   0.00000   0.00000
           D8           0.00000   0.00000   0.00000   0.00000   0.00000
           D9           0.00000   0.00000   0.00000   0.00000   0.00000
           D10          0.00000   0.00000   0.00000   0.00000   0.00000
           D11          0.00000   0.00000   0.00000   0.00000   0.00000
           D12          0.00000   0.00000   0.00000   0.00000   0.00000
           D13          0.00000   0.00000   0.00000   0.00000   0.00000
           D14          0.00000   0.00000   0.00000   0.00000   0.00000
           D15          0.00000   0.00000   0.00000   0.00000   0.00000
           D16          0.00000   0.00000   0.00000   0.00000   0.00000
           D17          0.00000   0.00000   0.00000   0.00000   0.00000
           D18          0.00000   0.00000   0.00000   0.00000   0.00000
           D19          0.00000   0.00000   0.00000   0.00000   0.00000
           D20          0.00000   0.00000   0.00000   0.00000   0.00000
           D21          0.00000   0.00000   0.00000   0.00000   0.00000
           D22          0.00000   0.00000   0.00000   0.00000   0.00000
           D23          0.00000   0.00000   0.00000   0.00000   0.00000
           D24          0.00000   0.00000   0.00000   0.00000   0.00000
                          D6        D7        D8        D9        D10
           D6           0.02295
           D7           0.00000   0.02295
           D8           0.00000   0.00000   0.02295
           D9           0.00000   0.00000   0.00000   0.02295
           D10          0.00000   0.00000   0.00000   0.00000   0.02295
           D11          0.00000   0.00000   0.00000   0.00000   0.00000
           D12          0.00000   0.00000   0.00000   0.00000   0.00000
           D13          0.00000   0.00000   0.00000   0.00000   0.00000
           D14          0.00000   0.00000   0.00000   0.00000   0.00000
           D15          0.00000   0.00000   0.00000   0.00000   0.00000
           D16          0.00000   0.00000   0.00000   0.00000   0.00000
           D17          0.00000   0.00000   0.00000   0.00000   0.00000
           D18          0.00000   0.00000   0.00000   0.00000   0.00000
           D19          0.00000   0.00000   0.00000   0.00000   0.00000
           D20          0.00000   0.00000   0.00000   0.00000   0.00000
           D21          0.00000   0.00000   0.00000   0.00000   0.00000
           D22          0.00000   0.00000   0.00000   0.00000   0.00000
           D23          0.00000   0.00000   0.00000   0.00000   0.00000
           D24          0.00000   0.00000   0.00000   0.00000   0.00000
                          D11       D12       D13       D14       D15
           D11          0.02295
           D12          0.00000   0.02295
           D13          0.00000   0.00000   0.02295
           D14          0.00000   0.00000   0.00000   0.02295
           D15          0.00000   0.00000   0.00000   0.00000   0.02295
           D16          0.00000   0.00000   0.00000   0.00000   0.00000
           D17          0.00000   0.00000   0.00000   0.00000   0.00000
           D18          0.00000   0.00000   0.00000   0.00000   0.00000
           D19          0.00000   0.00000   0.00000   0.00000   0.00000
           D20          0.00000   0.00000   0.00000   0.00000   0.00000
           D21          0.00000   0.00000   0.00000   0.00000   0.00000
           D22          0.00000   0.00000   0.00000   0.00000   0.00000
           D23          0.00000   0.00000   0.00000   0.00000   0.00000
           D24          0.00000   0.00000   0.00000   0.00000   0.00000
                          D16       D17       D18       D19       D20
           D16          0.02295
           D17          0.00000   0.02295
           D18          0.00000   0.00000   0.02295
           D19          0.00000   0.00000   0.00000   0.02295
           D20          0.00000   0.00000   0.00000   0.00000   0.02295
           D21          0.00000   0.00000   0.00000   0.00000   0.00000
           D22          0.00000   0.00000   0.00000   0.00000   0.00000
           D23          0.00000   0.00000   0.00000   0.00000   0.00000
           D24          0.00000   0.00000   0.00000   0.00000   0.00000
                          D21       D22       D23       D24
           D21          0.02295
           D22          0.00000   0.02295
           D23          0.00000   0.00000   0.02295
           D24          0.00000   0.00000   0.00000   0.02295
 ITU=  0
 Eigenvectors of the second derivative matrix:
                           1         2         3         4         5
     Eigenvalues --     0.02295   0.02295   0.02295   0.02295   0.02295
   1         R1         0.00000   0.00000   0.00000   0.00000   0.00000
   2         R2         0.00000   0.00000   0.00000   0.00000   0.00000
   3         R3         0.00000   0.00000   0.00000   0.00000   0.00000
   4         R4         0.00000   0.00000   0.00000   0.00000   0.00000
   5         R5         0.00000   0.00000   0.00000   0.00000   0.00000
   6         R6         0.00000   0.00000   0.00000   0.00000   0.00000
   7         R7         0.00000   0.00000   0.00000   0.00000   0.00000
   8         R8         0.00000   0.00000   0.00000   0.00000   0.00000
   9         R9         0.00000   0.00000   0.00000   0.00000   0.00000
  10         R10        0.00000   0.00000   0.00000   0.00000   0.00000
  11         R11        0.00000   0.00000   0.00000   0.00000   0.00000
  12         R12        0.00000   0.00000   0.00000   0.00000   0.00000
  13         A1         0.00000   0.00000   0.00000   0.00000   0.00000
  14         A2         0.00000   0.00000   0.00000   0.00000   0.00000
  15         A3         0.00000   0.00000   0.00000   0.00000   0.00000
  16         A4         0.00000   0.00000   0.00000   0.00000   0.00000
[...]
    D3        3.14159   0.00000   0.00000   0.00000   0.00000   3.14159
    D4        0.00000   0.00000   0.00000   0.00000   0.00000   0.00000
    D5        0.00000   0.00000   0.00000   0.00000   0.00000   0.00000
    D6        3.14159   0.00000   0.00000   0.00000   0.00000  -3.14159
    D7        3.14159   0.00000   0.00000   0.00000   0.00000  -3.14159
    D8        0.00000   0.00000   0.00000   0.00000   0.00000   0.00000
    D9        3.14159   0.00000   0.00000   0.00000   0.00000  -3.14159
   D10        0.00000   0.00000   0.00000   0.00000   0.00000   0.00000
   D11        0.00000   0.00000   0.00000   0.00000   0.00000   0.00000
   D12        3.14159   0.00000   0.00000   0.00000   0.00000  -3.14159
   D13        3.14159   0.00000   0.00000   0.00000   0.00000  -3.14159
   D14        0.00000   0.00000   0.00000   0.00000   0.00000   0.00000
   D15        0.00000   0.00000   0.00000   0.00000   0.00000   0.00000
   D16        3.14159   0.00000   0.00000   0.00000   0.00000   3.14159
   D17        0.00000   0.00000   0.00000   0.00000   0.00000   0.00000
   D18        3.14159   0.00000   0.00000   0.00000   0.00000   3.14159
   D19       -3.14159   0.00000   0.00000   0.00000   0.00000   3.14159
   D20        0.00000   0.00000   0.00000   0.00000   0.00000   0.00000
   D21        0.00000   0.00000   0.00000   0.00000   0.00000   0.00000
   D22        3.14159   0.00000   0.00000   0.00000   0.00000   3.14159
   D23       -3.14159   0.00000   0.00000   0.00000   0.00000   3.14159
   D24        0.00000   0.00000   0.00000   0.00000   0.00000   0.00000
         Item               Value     Threshold  Converged?
 Maximum Force            0.000002     0.000015     YES
 RMS     Force            0.000001     0.000010     YES
 Maximum Displacement     0.000013     0.000060     YES
 RMS     Displacement     0.000004     0.000040     YES
 Predicted change in Energy=-3.677784D-11
 Optimization completed.
    -- Stationary point found.
                           ----------------------------
                           !   Optimized Parameters   !
                           ! (Angstroms and Degrees)  !
 --------------------------                            --------------------------
 ! Name  Definition              Value          Derivative Info.                !
 --------------------------------------------------------------------------------
 ! R1    R(1,2)                  1.0808         -DE/DX =    0.0                 !
 ! R2    R(1,5)                  1.4217         -DE/DX =    0.0                 !
 ! R3    R(1,7)                  1.4217         -DE/DX =    0.0                 !
 ! R4    R(3,4)                  1.0808         -DE/DX =    0.0                 !
 ! R5    R(3,9)                  1.4217         -DE/DX =    0.0                 !
 ! R6    R(3,11)                 1.4217         -DE/DX =    0.0                 !
 ! R7    R(5,6)                  1.0808         -DE/DX =    0.0                 !
 ! R8    R(5,9)                  1.4217         -DE/DX =    0.0                 !
 ! R9    R(7,8)                  1.0808         -DE/DX =    0.0                 !
 ! R10   R(7,11)                 1.4217         -DE/DX =    0.0                 !
 ! R11   R(9,10)                 1.0808         -DE/DX =    0.0                 !
 ! R12   R(11,12)                1.0808         -DE/DX =    0.0                 !
 ! A1    A(2,1,5)              120.0022         -DE/DX =    0.0                 !
 ! A2    A(2,1,7)              120.0022         -DE/DX =    0.0                 !
 ! A3    A(5,1,7)              119.9956         -DE/DX =    0.0                 !
 ! A4    A(4,3,9)              120.0022         -DE/DX =    0.0                 !
 ! A5    A(4,3,11)             120.0022         -DE/DX =    0.0                 !
 ! A6    A(9,3,11)             119.9956         -DE/DX =    0.0                 !
 ! A7    A(1,5,6)              119.9991         -DE/DX =    0.0                 !
 ! A8    A(1,5,9)              120.0022         -DE/DX =    0.0                 !
 ! A9    A(6,5,9)              119.9987         -DE/DX =    0.0                 !
 ! A10   A(1,7,8)              119.9991         -DE/DX =    0.0                 !
 ! A11   A(1,7,11)             120.0022         -DE/DX =    0.0                 !
 ! A12   A(8,7,11)             119.9987         -DE/DX =    0.0                 !
 ! A13   A(3,9,5)              120.0022         -DE/DX =    0.0                 !
 ! A14   A(3,9,10)             119.9991         -DE/DX =    0.0                 !
 ! A15   A(5,9,10)             119.9987         -DE/DX =    0.0                 !
 ! A16   A(3,11,7)             120.0022         -DE/DX =    0.0                 !
 ! A17   A(3,11,12)            119.9991         -DE/DX =    0.0                 !
 ! A18   A(7,11,12)            119.9987         -DE/DX =    0.0                 !
 ! D1    D(2,1,5,6)              0.0            -DE/DX =    0.0                 !
 ! D2    D(2,1,5,9)           -180.0            -DE/DX =    0.0                 !
 ! D3    D(7,1,5,6)            180.0            -DE/DX =    0.0                 !
 ! D4    D(7,1,5,9)              0.0            -DE/DX =    0.0                 !
 ! D5    D(2,1,7,8)              0.0            -DE/DX =    0.0                 !
 ! D6    D(2,1,7,11)          -180.0            -DE/DX =    0.0                 !
 ! D7    D(5,1,7,8)           -180.0            -DE/DX =    0.0                 !
 ! D8    D(5,1,7,11)             0.0            -DE/DX =    0.0                 !
 ! D9    D(4,3,9,5)           -180.0            -DE/DX =    0.0                 !
 ! D10   D(4,3,9,10)             0.0            -DE/DX =    0.0                 !
 ! D11   D(11,3,9,5)             0.0            -DE/DX =    0.0                 !
 ! D12   D(11,3,9,10)         -180.0            -DE/DX =    0.0                 !
 ! D13   D(4,3,11,7)          -180.0            -DE/DX =    0.0                 !
 ! D14   D(4,3,11,12)            0.0            -DE/DX =    0.0                 !
 ! D15   D(9,3,11,7)             0.0            -DE/DX =    0.0                 !
 ! D16   D(9,3,11,12)          180.0            -DE/DX =    0.0                 !
 ! D17   D(1,5,9,3)              0.0            -DE/DX =    0.0                 !
 ! D18   D(1,5,9,10)           180.0            -DE/DX =    0.0                 !
 ! D19   D(6,5,9,3)            180.0            -DE/DX =    0.0                 !
 ! D20   D(6,5,9,10)             0.0            -DE/DX =    0.0                 !
 ! D21   D(1,7,11,3)             0.0            -DE/DX =    0.0                 !
 ! D22   D(1,7,11,12)          180.0            -DE/DX =    0.0                 !
 ! D23   D(8,7,11,3)           180.0            -DE/DX =    0.0                 !
 ! D24   D(8,7,11,12)            0.0            -DE/DX =    0.0                 !
 --------------------------------------------------------------------------------
 GradGradGradGradGradGradGradGradGradGradGradGradGradGradGradGradGradGrad

 Leave Link  103 at Wed Jan 20 21:16:55 2016, MaxMem=  134217728 cpu:       0.1
 (Enter /apps/Gausian/g09/l9999.exe)

 Test job not archived.
 1\1\GINC-NODE1-012\Freq\RB3LYP TD-FC\def2TZVP\C6H6\TM162\20-Jan-2016\0
 \\#P Geom=AllCheck Guess=TCheck SCRF=Check Test GenChk RB3LYP TD(FC)/d
 ef2TZVP Freq\\benzE\\0,1\C,1.4217454651,-0.0000000057,0.0000000032\H,2
 .5025559139,0.0000000041,0.0000000065\C,-1.4217454776,0.0000000001,0.0
 000000044\H,-2.5025558392,-0.0000000015,0.0000000064\C,0.7108575664,1.
 2311848827,0.0000000019\H,1.2512443673,2.1672116702,0.0000000081\C,0.7
 108575596,-1.2311848869,-0.0000000089\H,1.251244364,-2.1672116632,-0.0
 00000011\C,-0.7108576146,1.231184863,-0.0000000102\H,-1.2512443467,2.1
 672116397,-0.0000000109\C,-0.7108576159,-1.2311848605,0.0000000045\H,-
 1.2512443423,-2.1672116318,0.0000000061\\Version=EM64L-G09RevC.01\
 HF=-232.3324883
         Total DFT energy =     -231.665571551899
 
 \RMSD=5.730e-09\RMSF=7.314e-07\ZeroPoint=0.0941809\Thermal=
 0.099856\Dipole=0.0000072,0.0000007,0.\DipoleDeriv=0.0671812,0.0000006
 ,0.,0.0000034,-0.037579,-0.0000002,-0.0000283,0.000001,-0.1496772,-0.0
 845012,0.0000006,0.,0.0000202,0.0555811,-0.0000001,0.0004279,0.0000115
 ,0.1500814,0.0671798,-0.0000008,0.,-0.0000023,-0.0375802,0.0000005,0.0
 000679,0.0000032,-0.1496779,-0.0844986,0.0000011,0.,-0.0000395,0.05557
 7,-0.0000023,-0.0001902,0.0000114,0.1500681,-0.0115181,0.044996,0.0000
 005,0.0449463,0.0402553,-0.0000001,0.0000066,-0.0000278,-0.1500198,0.0
 2024,-0.0608975,0.0000004,-0.0606521,-0.0495609,-0.0000002,0.0002739,0
 .0002671,0.1497577,-0.0115175,-0.0449963,-0.0000003,-0.0449449,0.04022
 54,0.0000003,0.0000041,0.0000327,-0.1500193,0.0202389,0.0608966,0.,0.0
 606539,-0.0495543,0.0000003,0.0002702,-0.0002398,0.1497552,-0.0115376,
 -0.0449764,0.0000005,-0.0449455,0.0402563,0.0000002,0.0000255,-0.00003
 4,-0.1500213,0.0202408,0.0609074,0.0000015,0.0606601,-0.049562,0.,-0.0
 000545,0.0002691,0.1497497,-0.0115377,0.044976,0.0000002,0.0449471,0.0
 402257,0.0000001,0.000023,0.00004,-0.1500206,0.0202455,-0.0609139,0.,-
 0.0606439,-0.0495587,0.,-0.0000533,-0.000245,0.1497482\Quadrupole=1.94
 73419,1.9479267,-3.8952685,0.,0.,0.\QuadrupoleDeriv=0.8617836,-0.18190
 55,-0.6798782,-0.0000024,-0.0000001,-0.0000018,-0.0000913,0.0000824,0.
 0000088,-0.28889,0.0000011,0.0000055,0.0011714,-0.0017334,0.000562,-0.
 0000058,-0.7903497,0.0000016,0.0318503,0.1300757,-0.161926,-0.0000027,
 -0.0000001,0.0000004,-0.0001711,0.0001661,0.0000049,0.8911271,-0.00000
 74,0.0000284,0.0013004,-0.0011276,-0.0001728,-0.0000007,0.8623513,0.00
 00004,-0.8617897,0.1819099,0.6798799,0.0000075,0.0000002,0.0000007,-0.
 0000897,0.0000801,0.0000096,0.2888915,-0.0000048,-0.0000037,0.0011869,
 -0.0017421,0.0005552,0.0000072,0.7903482,0.0000005,-0.031849,-0.130089
 7,0.1619387,0.0000049,0.,-0.0000021,-0.0001971,0.0001932,0.0000038,-0.
 8911061,0.0000013,0.0000094,0.0013114,-0.0011426,-0.0001687,0.0000014,
 -0.8623676,0.0000015,-0.1778341,0.5160049,-0.3381708,0.1024711,-0.0000
 008,0.0000016,0.1929059,0.395889,-0.588795,0.4640678,-0.0000009,-0.000
 0009,-0.0000932,-0.0004947,0.0005878,0.0007141,-0.395625,-0.6848899,0.
 7229767,-0.6407455,-0.0822312,0.3663853,0.0000013,0.0000005,-0.2955291
 ,0.4356903,-0.1401612,-0.2602346,-0.0000003,0.0000006,0.000682,-0.0005
 062,-0.0001758,0.0003913,0.4307076,0.7463992,-0.1778327,0.516004,-0.33
 81713,-0.1024711,-0.0000022,0.0000008,-0.1928988,-0.3958897,0.5887885,
 0.4640097,-0.0000005,0.0000003,-0.0000861,-0.0005018,0.0005879,-0.0007
 081,-0.3956235,0.6848793,0.7229809,-0.6407488,-0.082232,-0.3663851,-0.
 0000029,0.0000002,0.2955332,-0.4356968,0.1401636,-0.2602399,0.0000008,
 -0.0000006,0.0006769,-0.0005005,-0.0001764,-0.0003928,0.4307052,-0.746
 3964,0.1777382,-0.5159181,0.3381799,0.1024136,-0.0000011,0.0000004,0.1
 929079,0.3958869,-0.5887948,-0.4640663,0.000001,-0.0000002,-0.0000937,
 -0.0004921,0.0005858,-0.0007134,0.3956304,-0.6848941,-0.7229699,0.6407
 321,0.0822378,0.3663824,0.0000037,-0.0000019,-0.2955339,0.4356949,-0.1
 401609,0.2602316,-0.0000012,-0.0000014,0.0006791,-0.0004958,-0.0001833
 ,-0.0003912,-0.4307075,0.7464004,0.1777369,-0.5159176,0.3381806,-0.102
 4131,0.0000008,0.0000004,-0.1928977,-0.3958916,0.5887892,-0.4640096,-0
 .0000028,0.0000019,-0.0000829,-0.0005051,0.000588,0.0007132,0.3956244,
 0.6849014,-0.7229762,0.6407382,0.082238,-0.3663758,0.0000013,-0.000002
 5,0.2955414,-0.4357017,0.1401603,0.2602449,0.0000007,0.0000008,0.00068
 14,-0.0004978,-0.0001836,0.0003937,-0.4307151,-0.7464037\PG=C01 [X(C6H
 6)]\NImag=0\\0.68382293,-0.00000017,0.62553073,-0.00000089,-0.00000070
 ,0.07486433,-0.34223059,-0.00000056,0.00000356,0.36198803,-0.00000188,
 -0.05715057,-0.00000511,-0.00000012,0.05739331,-0.00000471,-0.00000015
 ,-0.02262961,0.00000706,0.,0.01192324,0.00058433,0.00000045,-0.0000020
 0,0.00006991,0.00000171,-0.00000147,0.68382211,-0.00000008,-0.03558461
 ,0.00000010,0.00000012,-0.00068779,-0.00000033,0.00000004,0.62553324,0
 .00000209,-0.00000153,-0.00289922,0.00000409,-0.00000209,-0.00042655,0
 .00000100,0.00000144,0.07486511,0.00006865,-0.00000003,-0.00000406,-0.
 00001816,0.00000019,0.00000291,-0.34222980,0.00000039,-0.00000249,0.36
 198755,-0.00000174,-0.00068881,-0.00000173,-0.00000093,0.00021634,0.00
 000033,0.00000282,-0.05715014,-0.00000008,-0.00000021,0.05739327,0.000
 00304,-0.00000002,-0.00042274,-0.00000038,0.00000074,0.00108241,0.0000
 0193,-0.00000005,-0.02262325,-0.00000495,0.00000073,0.01192122,-0.1573
 6279,0.09621226,0.00000228,-0.01094394,0.02901715,-0.00000584,-0.02040
 062,-0.01784561,-0.00000188,0.00092216,-0.00140334,-0.00000369,0.63992
 860,0.09563598,-0.26824158,0.00000074,-0.00274667,0.00423957,0.0000024
 0,-0.05166877,0.01975875,0.00000329,-0.00219452,-0.00514705,0.00000038
 ,0.02521980,0.66950980,0.00000274,-0.00000208,-0.03864650,0.00000034,0
 .00000232,0.00526099,-0.00000547,0.00000286,0.00799775,-0.00000083,0.0
 0000527,0.00084475,-0.00000197,0.00000241,0.07462970,0.01182878,0.0158
 6639,-0.00000004,0.00072620,-0.00065410,0.00000065,-0.00518020,0.00212
 179,0.00000062,-0.00060546,-0.00140852,-0.00000086,-0.12841552,-0.1233
 9776,-0.00000133,0.13352316,-0.01588446,-0.01852462,-0.00000163,0.0003
 4093,0.00090996,-0.00000014,0.00133738,0.00096848,-0.00000027,0.000177
 84,0.00011094,-0.00000123,-0.12338093,-0.27099037,0.00000074,0.1318383
 2,0.28586348,-0.00000172,-0.00000657,0.00527120,0.00000315,-0.00000004
 ,-0.00084576,0.00000351,-0.00000012,0.00080222,0.00000015,0.00000045,-
 0.00023140,-0.00000297,-0.00000089,-0.02240247,0.00000247,0.00000404,0
 .01163299,-0.15736367,-0.09621145,0.00000201,-0.01094430,-0.02901810,-
 0.00000506,-0.02040040,0.01784732,-0.00000178,0.00092231,0.00140599,-0
 .00000308,0.03988157,0.01694519,0.00000091,-0.00206931,0.00392346,-0.0
 0000407,0.63992890,-0.09563417,-0.26823898,-0.00000242,0.00274618,0.00
 424353,-0.00000180,0.05166920,0.01975608,-0.00000362,0.00219474,-0.005
 14658,0.00000050,-0.01694614,-0.04027839,0.00000049,0.00313826,-0.0021
 5750,0.00000126,-0.02521940,0.66950853,0.00000362,0.00000316,-0.038646
 76,0.00000013,0.00000062,0.00526145,-0.00000347,-0.00000158,0.00799931
 ,-0.00000100,-0.00000505,0.00084481,0.00000298,0.00000216,0.00809241,0
 .00000162,-0.00000165,0.00083850,-0.00000010,-0.00000360,0.07463807,0.
 01182842,-0.01586570,0.00000127,0.00072627,0.00065444,0.00000084,-0.00
 518002,-0.00212173,-0.00000073,-0.00060543,0.00140875,-0.00000064,-0.0
 0206978,-0.00313923,-0.00000245,0.00045934,-0.00079539,0.00000024,-0.1
 2841537,0.12339794,0.00000053,0.13352323,0.01588362,-0.01852464,0.0000
 0266,-0.00034082,0.00090958,0.00000054,-0.00133737,0.00097038,0.000000
 33,-0.00017751,0.00011028,0.00000146,-0.00392559,-0.00215701,0.0000009
 1,0.00079534,-0.00096131,0.00000201,0.12338045,-0.27098927,-0.00000053
 ,-0.13183806,0.28586339,-0.00000192,0.00000653,0.00527124,0.00000318,-
 0.00000042,-0.00084767,0.00000298,-0.00000033,0.00080055,0.00000021,0.
 00000011,-0.00023102,-0.00000330,-0.00000178,0.00083730,0.00000033,-0.
 00000202,-0.00023194,-0.00000253,0.00000064,-0.02239930,0.00000225,-0.
 00000384,0.01163328,-0.02039894,0.01784383,0.00000202,0.00092051,0.001
 40377,0.00000088,-0.15736304,-0.09621255,0.00000018,-0.01094592,-0.029
 01827,0.00000361,-0.32363152,0.00026082,-0.00000400,-0.01093430,0.0027
 3157,-0.00000459,-0.02649662,-0.01572182,0.00000397,-0.00049487,-0.000
 32041,0.00000062,0.63993654,0.05166875,0.01975790,0.00000382,0.0021944
 8,-0.00514784,-0.00000274,-0.09563669,-0.26824269,0.00000104,0.0027460
 8,0.00423910,0.00000218,-0.00025897,-0.10220325,0.00000189,-0.02902314
 ,0.00421998,-0.00000192,-0.01572039,-0.00859884,0.00000538,-0.00033159
 ,-0.00012514,0.00000235,-0.02522043,0.66951257,0.00000494,0.00000265,0
 .00801536,0.00000112,-0.00000108,0.00084329,0.00000092,-0.00000224,-0.
 03859935,0.00000019,-0.00000480,0.00525644,0.00000029,0.00000629,-0.03
 846503,-0.00000041,-0.00000319,0.00534938,0.00000023,-0.00000734,-0.00
 299351,0.00000225,0.00000015,-0.00039582,0.00000211,0.00000239,0.07455
 553,-0.00517734,-0.00212512,0.00000332,-0.00060505,0.00140834,0.000001
 48,0.01182711,-0.01586555,0.00000536,0.00072656,0.00065371,0.00000017,
 -0.01093610,0.02902620,-0.00000176,0.00101798,-0.00049563,0.00000101,-
 0.00049079,-0.00032997,-0.00000097,0.00015010,0.00010486,0.00000201,-0
 .12841784,0.12339798,-0.00000313,0.13352316,-0.00133626,0.00096901,-0.
 00000161,-0.00017789,0.00011114,-0.00000213,0.01588338,-0.01852390,-0.
 00000252,-0.00034058,0.00091011,-0.00000101,-0.00273100,0.00422065,-0.
 00000170,0.00049507,0.00064187,-0.00000081,-0.00032085,-0.00012466,0.0
 0000207,0.00010507,0.00003984,-0.00000431,0.12338131,-0.27099001,0.000
 00086,-0.13183857,0.28586351,-0.00000399,-0.00000029,0.00080204,0.0000
 0175,0.00000129,-0.00023180,0.00000125,-0.00000673,0.00527973,-0.00000
 100,0.00000106,-0.00084640,0.00000183,-0.00000115,0.00534344,-0.000000
 37,-0.00000008,-0.00086164,-0.00000220,-0.00000244,-0.00039493,-0.0000
 0157,0.00000330,0.00108062,0.00000215,-0.00000133,-0.02239764,-0.00000
 151,0.00000302,0.01162828,-0.02039938,-0.01784538,0.00000067,0.0009204
 4,-0.00140246,0.00000130,-0.15736305,0.09621124,-0.00000089,-0.0109457
 0,0.02901632,0.00000458,-0.02649660,0.01572248,0.00000217,-0.00049550,
 0.00032101,0.00000114,-0.32363166,-0.00026266,-0.00000195,-0.01093444,
 -0.00272975,-0.00000519,0.03988355,-0.01694738,-0.00000701,-0.00207322
 ,-0.00392356,0.00000200,0.63993616,-0.05166926,0.01975760,-0.00000274,
 -0.00219421,-0.00514749,0.00000177,0.09563357,-0.26823897,0.00000029,-
 0.00274584,0.00424297,-0.00000334,0.01572062,-0.00860063,-0.00000329,0
 .00033176,-0.00012398,-0.00000203,0.00025985,-0.10220133,-0.00000650,0
 .02902336,0.00421770,0.00000211,0.01694791,-0.04027830,-0.00000141,-0.
 00313980,-0.00215895,0.00000233,0.02522180,0.66950692,0.00000485,-0.00
 000348,0.00801584,0.00000162,0.00000569,0.00084297,-0.00000283,0.00000
 262,-0.03861597,-0.00000001,0.00000389,0.00525347,-0.00000212,0.000005
 07,-0.00299530,-0.00000102,0.00000031,-0.00039669,-0.00000160,-0.00000
 425,-0.03847195,-0.00000177,0.00000239,0.00534750,-0.00000782,-0.00000
 130,0.00806515,-0.00000042,-0.00000264,0.00083300,0.00000079,-0.000001
 04,0.07456647,-0.00517726,0.00212586,0.00000215,-0.00060504,-0.0014089
 1,0.00000164,0.01182755,0.01586435,0.00000281,0.00072648,-0.00065456,0
 .00000029,-0.00049065,0.00032936,-0.00000136,0.00015005,-0.00010473,0.
 00000205,-0.01093604,-0.02902655,-0.00000015,0.00101803,0.00049586,0.0
 0000125,-0.00207336,0.00314039,-0.00000082,0.00045976,0.00079556,0.000
 00063,-0.12841835,-0.12339750,-0.00000081,0.13352336,0.00133870,0.0009
 7080,-0.00000070,0.00017732,0.00011000,0.00000182,-0.01588305,-0.01852
 460,-0.00000161,0.00034079,0.00090934,0.00000169,0.00031885,-0.0001242
 1,0.,-0.00010512,0.00003992,0.00000431,0.00272886,0.00421596,0.0000017
 3,-0.00049550,0.00064216,0.00000089,0.00392606,-0.00215806,0.00000422,
 -0.00079548,-0.00096128,0.00000279,-0.12338139,-0.27098772,0.00000284,
 0.13183830,0.28586350,-0.00000406,-0.00000034,0.00080293,0.00000195,-0
 .00000150,-0.00023169,0.00000139,0.00000716,0.00528064,-0.00000104,-0.
 00000026,-0.00084687,-0.00000158,0.00000294,-0.00039479,-0.00000091,-0
 .00000338,0.00107994,0.00000242,0.00000098,0.00534018,-0.00000037,0.00
 000021,-0.00086116,0.00000185,-0.00000230,0.00083226,0.00000064,-0.000
 00254,-0.00023158,0.00000173,0.00000101,-0.02239638,-0.00000135,-0.000
 00291,0.01162905\\0.00000041,-0.00000002,0.,0.00000021,0.,0.,-0.000000
 49,-0.00000002,0.,0.00000012,0.,0.,0.00000075,0.00000196,0.,0.00000037
 ,-0.00000029,0.,0.00000074,-0.00000198,0.,0.00000036,0.00000032,0.,-0.
 00000102,0.00000186,0.,-0.00000023,-0.00000040,0.,-0.00000100,-0.00000
 188,0.,-0.00000022,0.00000043,0.\\\@


 NATURE WILL TELL YOU A DIRECT LIE IF SHE CAN.

                                -- CHARLES DARWIN
 Job cpu time:  0 days 22 hours  3 minutes  8.3 seconds.
 File lengths (MBytes):  RWF=    133 Int=      0 D2E=      0 Chk=     60 Scr=      1
 Normal termination of Gaussian 09 at Wed Jan 20 21:16:55 2016.
