 Entering Gaussian System, Link 0=g09
 Initial command:
 /apps/Gausian/g09/l1.exe /local/tm162.130713/scratch/Gau-3224.inp -scrdir=/local/tm162.130713/scratch/
 Entering Link 1 = /apps/Gausian/g09/l1.exe PID=      3225.
  
 Copyright (c) 1988,1990,1992,1993,1995,1998,2003,2009,2011,
            Gaussian, Inc.  All Rights Reserved.
  
 This is part of the Gaussian(R) 09 program.  It is based on
 the Gaussian(R) 03 system (copyright 2003, Gaussian, Inc.),
 the Gaussian(R) 98 system (copyright 1998, Gaussian, Inc.),
 the Gaussian(R) 94 system (copyright 1995, Gaussian, Inc.),
 the Gaussian 92(TM) system (copyright 1992, Gaussian, Inc.),
 the Gaussian 90(TM) system (copyright 1990, Gaussian, Inc.),
 the Gaussian 88(TM) system (copyright 1988, Gaussian, Inc.),
 the Gaussian 86(TM) system (copyright 1986, Carnegie Mellon
 University), and the Gaussian 82(TM) system (copyright 1983,
 Carnegie Mellon University). Gaussian is a federally registered
 trademark of Gaussian, Inc.
  
 This software contains proprietary and confidential information,
 including trade secrets, belonging to Gaussian, Inc.
  
 This software is provided under written license and may be
 used, copied, transmitted, or stored only in accord with that
 written license.
  
 The following legend is applicable only to US Government
 contracts under FAR:
  
                    RESTRICTED RIGHTS LEGEND
  
 Use, reproduction and disclosure by the US Government is
 subject to restrictions as set forth in subparagraphs (a)
 and (c) of the Commercial Computer Software - Restricted
 Rights clause in FAR 52.227-19.
  
 Gaussian, Inc.
 340 Quinnipiac St., Bldg. 40, Wallingford CT 06492
  
  
 ---------------------------------------------------------------
 Warning -- This program may not be used in any manner that
 competes with the business of Gaussian, Inc. or will provide
 assistance to any competitor of Gaussian, Inc.  The licensee
 of this program is prohibited from giving any competitor of
 Gaussian, Inc. access to this program.  By using this program,
 the user acknowledges that Gaussian, Inc. is engaged in the
 business of creating and licensing software in the field of
 computational chemistry and represents and warrants to the
 licensee that it is not a competitor of Gaussian, Inc. and that
 it will not use this program in any manner prohibited above.
 ---------------------------------------------------------------
  

 Cite this work as:
 Gaussian 09, Revision C.01,
 M. J. Frisch, G. W. Trucks, H. B. Schlegel, G. E. Scuseria, 
 M. A. Robb, J. R. Cheeseman, G. Scalmani, V. Barone, B. Mennucci, 
 G. A. Petersson, H. Nakatsuji, M. Caricato, X. Li, H. P. Hratchian, 
 A. F. Izmaylov, J. Bloino, G. Zheng, J. L. Sonnenberg, M. Hada, 
 M. Ehara, K. Toyota, R. Fukuda, J. Hasegawa, M. Ishida, T. Nakajima, 
 Y. Honda, O. Kitao, H. Nakai, T. Vreven, J. A. Montgomery, Jr., 
 J. E. Peralta, F. Ogliaro, M. Bearpark, J. J. Heyd, E. Brothers, 
 K. N. Kudin, V. N. Staroverov, T. Keith, R. Kobayashi, J. Normand, 
 K. Raghavachari, A. Rendell, J. C. Burant, S. S. Iyengar, J. Tomasi, 
 M. Cossi, N. Rega, J. M. Millam, M. Klene, J. E. Knox, J. B. Cross, 
 V. Bakken, C. Adamo, J. Jaramillo, R. Gomperts, R. E. Stratmann, 
 O. Yazyev, A. J. Austin, R. Cammi, C. Pomelli, J. W. Ochterski, 
 R. L. Martin, K. Morokuma, V. G. Zakrzewski, G. A. Voth, 
 P. Salvador, J. J. Dannenberg, S. Dapprich, A. D. Daniels, 
 O. Farkas, J. B. Foresman, J. V. Ortiz, J. Cioslowski, 
 and D. J. Fox, Gaussian, Inc., Wallingford CT, 2010.
 
 ******************************************
 Gaussian 09:  EM64L-G09RevC.01 23-Sep-2011
                 1-Sep-2015 
 ******************************************
 %rwf=/local/tm162.130713/ground_freq.g09.rwf
 %nosave
 %chk=/local/tm162.130713/aromaticRing.chk
 %nproc=1
 Will use up to    1 processors via shared memory.
 %mem=1Gb
 ----------------------------------------------------------------------
 #P opt=(CalcFC,Cartesian,Maxcycle=150) IOP(1/33=1) NoSymm LC-BLYP/STO-
 3G Formcheck
 ----------------------------------------------------------------------
 1/6=150,10=4,14=-1,18=10,26=3,33=1,38=1/1,3;
 2/12=2,15=1,17=6,18=5,29=2,40=1/2;
 3/6=3,11=2,16=1,25=1,30=1,71=2,74=1000402/1,2,3;
 4//1;
 5/5=2,38=5/2;
 8/6=4,10=90,11=11/1;
 11/6=1,8=1,9=11,15=111,16=1,31=1/1,2,10;
 10/6=1,7=6,13=1,31=1/2;
 6/7=2,8=2,9=2,10=2,28=1/1;
 7/7=1,10=1,18=20,25=1,30=1/1,2,3,16;
 1/6=150,10=4,14=-1,18=10,33=1/3(2);
 2/15=1,29=1/2;
 99/12=1/99;
 2/15=1,29=1/2;
 3/6=3,11=2,16=1,25=1,30=1,71=1,74=1000402/1,2,3;
 4/5=5,16=3/1;
 5/5=2,38=5/2;
 7/7=1,30=1/1,2,3,16;
 1/6=150,14=-1,18=10,33=1/3(-5);
 2/15=1,29=1/2;
 6/7=2,8=2,9=2,10=2,19=2,28=1/1;
 99/9=1,12=1/99;
 Leave Link    1 at Tue Sep  1 09:11:23 2015, MaxMem=  134217728 cpu:       0.0
 (Enter /apps/Gausian/g09/l101.exe)
 ONIOM data not found on unit 2.
 -------
 benzene
 -------
 Charge =  0 Multiplicity = 1
 Symbolic Z-Matrix:
 6                     1.39207   0.        0. 
 1                     2.48259   0.        0. 
 6                    -1.39207   0.        0. 
 1                    -2.48259   0.        0. 
 6                     0.69613   1.20554   0. 
 1                     1.24152   2.14986   0. 
 6                     0.69613  -1.20554   0. 
 1                     1.24152  -2.14986   0. 
 6                    -0.69613   1.20554   0. 
 1                    -1.24152   2.14986   0. 
 6                    -0.69613  -1.20554   0. 
 1                    -1.24152  -2.14986   0. 
 
 RdStrC is calling ZToCFu for IStruc=1 NZ=    12.
 PrtBox:  NBox=     3 Levels=  1 BoxLen=    8.00 SMaxX=        9.38
          Shift=            4.691410            4.062654            0.000000
 Box      1 Number                   0 centers from      1 to      9:
 Box      2 Number                   2 centers from     10 to     11:
 Box      3 Number                   4 centers from     12 to     12:
 ITRead=  0  0  0  0  0  0  0  0  0  0  0  0
 MicOpt= -1 -1 -1 -1 -1 -1 -1 -1 -1 -1 -1 -1
 NAtoms=     12 NQM=        0 NQMF=       0 NMMI=     12 NMMIF=      0
                NMic=       0 NMicF=      0.
                    Isotopes and Nuclear Properties:
 (Nuclear quadrupole moments (NQMom) in fm**2, nuclear magnetic moments (NMagM)
  in nuclear magnetons)

  Atom         1           2           3           4           5           6           7           8           9          10
 IAtWgt=          12           1          12           1          12           1          12           1          12           1
 AtmWgt=  12.0000000   1.0078250  12.0000000   1.0078250  12.0000000   1.0078250  12.0000000   1.0078250  12.0000000   1.0078250
 NucSpn=           0           1           0           1           0           1           0           1           0           1
 AtZEff=   0.0000000   0.0000000   0.0000000   0.0000000   0.0000000   0.0000000   0.0000000   0.0000000   0.0000000   0.0000000
 NQMom=    0.0000000   0.0000000   0.0000000   0.0000000   0.0000000   0.0000000   0.0000000   0.0000000   0.0000000   0.0000000
 NMagM=    0.0000000   2.7928460   0.0000000   2.7928460   0.0000000   2.7928460   0.0000000   2.7928460   0.0000000   2.7928460

  Atom        11          12
 IAtWgt=          12           1
 AtmWgt=  12.0000000   1.0078250
 NucSpn=           0           1
 AtZEff=   0.0000000   0.0000000
 NQMom=    0.0000000   0.0000000
 NMagM=    0.0000000   2.7928460
 No MM parameters found.
 Leave Link  101 at Tue Sep  1 09:11:23 2015, MaxMem=  134217728 cpu:       0.0
 (Enter /apps/Gausian/g09/l103.exe)

 GradGradGradGradGradGradGradGradGradGradGradGradGradGradGradGradGradGrad
 Berny optimization.
 Initialization pass.
 No Z-matrix variables, so optimization will use Cartesian coordinates.
 Maximum allowed force set to 1.00D+20.
 Trust Radius=3.00D-01 FncErr=1.00D-07 GrdErr=1.00D-06
 Number of steps in this run=    100 maximum allowed number of steps=    100.
 GradGradGradGradGradGradGradGradGradGradGradGradGradGradGradGradGradGrad

 Leave Link  103 at Tue Sep  1 09:11:23 2015, MaxMem=  134217728 cpu:       0.0
 (Enter /apps/Gausian/g09/l202.exe)
 ---------------------------------------------------------------------------------------------------
                            Z-MATRIX (ANGSTROMS AND DEGREES)
   CD    Cent   Atom    N1       Length/X        N2       Alpha/Y        N3        Beta/Z          J
 ---------------------------------------------------------------------------------------------------
      1      1  C        0   1.392073          0.000000          0.000000
      2      2  H        0   2.482587          0.000000          0.000000
      3      3  C        0  -1.392073          0.000000          0.000000
      4      4  H        0  -2.482587          0.000000          0.000000
      5      5  C        0   0.696126          1.205536          0.000000
      6      6  H        0   1.241515          2.149864          0.000000
      7      7  C        0   0.696126         -1.205536          0.000000
      8      8  H        0   1.241515         -2.149864          0.000000
      9      9  C        0  -0.696126          1.205536          0.000000
     10     10  H        0  -1.241515          2.149864          0.000000
     11     11  C        0  -0.696126         -1.205536          0.000000
     12     12  H        0  -1.241515         -2.149864          0.000000
 ---------------------------------------------------------------------------------------------------
                         Z-Matrix orientation:                         
 ---------------------------------------------------------------------
 Center     Atomic      Atomic             Coordinates (Angstroms)
 Number     Number       Type             X           Y           Z
 ---------------------------------------------------------------------
      1          6           0        1.392073    0.000000    0.000000
      2          1           0        2.482587    0.000000    0.000000
      3          6           0       -1.392073    0.000000    0.000000
      4          1           0       -2.482587    0.000000    0.000000
      5          6           0        0.696126    1.205536    0.000000
      6          1           0        1.241515    2.149864    0.000000
      7          6           0        0.696126   -1.205536    0.000000
      8          1           0        1.241515   -2.149864    0.000000
      9          6           0       -0.696126    1.205536    0.000000
     10          1           0       -1.241515    2.149864    0.000000
     11          6           0       -0.696126   -1.205536    0.000000
     12          1           0       -1.241515   -2.149864    0.000000
 ---------------------------------------------------------------------
                    Distance matrix (angstroms):
                    1          2          3          4          5
     1  C    0.000000
     2  H    1.090514   0.000000
     3  C    2.784146   3.874660   0.000000
     4  H    3.874660   4.965174   1.090514   0.000000
     5  C    1.391998   2.155171   2.411201   3.399637   0.000000
     6  H    2.155129   2.482373   3.399662   4.300099   1.090507
     7  C    1.391998   2.155171   2.411201   3.399637   2.411072
     8  H    2.155129   2.482373   3.399662   4.300099   3.399435
     9  C    2.411201   3.399637   1.391998   2.155171   1.392252
    10  H    3.399662   4.300099   2.155129   2.482373   2.155506
    11  C    2.411201   3.399637   1.391998   2.155171   2.784176
    12  H    3.399662   4.300099   2.155129   2.482373   3.874682
                    6          7          8          9         10
     6  H    0.000000
     7  C    3.399435   0.000000
     8  H    4.299728   1.090507   0.000000
     9  C    2.155506   2.784176   3.874682   0.000000
    10  H    2.483030   3.874682   4.965189   1.090507   0.000000
    11  C    3.874682   1.392252   2.155506   2.411072   3.399435
    12  H    4.965189   2.155506   2.483030   3.399435   4.299728
                   11         12
    11  C    0.000000
    12  H    1.090507   0.000000
 Symmetry turned off by external request.
 Stoichiometry    C6H6
 Framework group  D2H[C2"(HC.CH),SG(C4H4)]
 Deg. of freedom     6
 Full point group                 D2H     NOp   8
 Rotational constants (GHZ):      5.7175039      5.7165810      2.8585212
 Leave Link  202 at Tue Sep  1 09:11:23 2015, MaxMem=  134217728 cpu:       0.0
 (Enter /apps/Gausian/g09/l301.exe)
 Standard basis: STO-3G (5D, 7F)
 Ernie: Thresh=  0.10000D-02 Tol=  0.10000D-05 Strict=F.
 Integral buffers will be    131072 words long.
 Raffenetti 2 integral format.
 Two-electron integral symmetry is turned off.
    36 basis functions,   108 primitive gaussians,    36 cartesian basis functions
    21 alpha electrons       21 beta electrons
       nuclear repulsion energy       203.6499755020 Hartrees.
 IExCor=10402 DFT=T Ex=LC-B+HF Corr=LYP ExCW=0 ScaHFX=  1.000000
 ScaDFX=  1.000000  1.000000  1.000000  1.000000 ScalE2=  1.000000  1.000000
 IRadAn=      0 IRanWt=     -1 IRanGd=            0 ICorTp=0
  HFx wShort=  0.000000 wLong=  0.470000 cFull=  0.000000 cShort=  0.000000 cLong=  1.000000
  DFx wShort=  0.000000 wLong=  0.470000 cFull=  0.000000 cShort=  0.000000 cLong=  1.000000
 NAtoms=   12 NActive=   12 NUniq=   12 SFac= 1.00D+00 NAtFMM=   60 NAOKFM=F Big=F
 Leave Link  301 at Tue Sep  1 09:11:24 2015, MaxMem=  134217728 cpu:       0.0
 (Enter /apps/Gausian/g09/l302.exe)
 NPDir=0 NMtPBC=     1 NCelOv=     1 NCel=       1 NClECP=     1 NCelD=      1
         NCelK=      1 NCelE2=     1 NClLst=     1 CellRange=     0.0.
 One-electron integrals computed using PRISM.
 NBasis=    36 RedAO= T  NBF=    36
 NBsUse=    36 1.00D-06 NBFU=    36
 Precomputing XC quadrature grid using
 IXCGrd= 2 IRadAn=           0 IRanWt=          -1 IRanGd=           0 AccXCQ= 0.00D+00.
 NRdTot=     744 NPtTot=       93780 NUsed=       99157 NTot=       99189
 NSgBfM=    36    36    36    36    36 NAtAll=    12    12.
 Leave Link  302 at Tue Sep  1 09:11:24 2015, MaxMem=  134217728 cpu:       0.2
 (Enter /apps/Gausian/g09/l303.exe)
 DipDrv:  MaxL=1.
 Leave Link  303 at Tue Sep  1 09:11:24 2015, MaxMem=  134217728 cpu:       0.0
 (Enter /apps/Gausian/g09/l401.exe)
 Harris functional with IExCor=10402 diagonalized for initial guess.
 ExpMin= 1.69D-01 ExpMax= 7.16D+01 ExpMxC= 7.16D+01 IAcc=1 IRadAn=         1 AccDes= 0.00D+00
 HarFok:  IExCor=10402 AccDes= 0.00D+00 IRadAn=         1 IDoV= 1
 ScaDFX=  1.000000  1.000000  1.000000  1.000000
 FoFCou: FMM=F IPFlag=           0 FMFlag=      100000 FMFlg1=           0
         NFxFlg=           0 DoJE=T BraDBF=F KetDBF=T FulRan=T
         Omega=  0.000000  0.000000  1.000000  0.000000  0.000000 ICntrl=     500 IOpCl=  0
         NMat0=    1 NMatS0=    1 NMatT0=    0 NMatD0=    1 NMtDS0=    0 NMtDT0=    0
         I1Cent=           4 NGrid=           0.
 Symmetry not used in FoFCou.
 Harris En= -219.290249636011    
 Leave Link  401 at Tue Sep  1 09:11:24 2015, MaxMem=  134217728 cpu:       0.3
 (Enter /apps/Gausian/g09/l502.exe)
 Closed shell SCF:
 Requested convergence on RMS density matrix=1.00D-08 within 128 cycles.
 Requested convergence on MAX density matrix=1.00D-06.
 Requested convergence on             energy=1.00D-06.
 No special actions if energy rises.
 Using DIIS extrapolation, IDIIS=  1040.
 Two-electron integral symmetry not used.
        99036 words used for storage of precomputed grid.
 IEnd=      121526 IEndB=      121526 NGot=   134217728 MDV=   134114175
 LenX=   134114175 LenY=   134112438
 Fock matrices will be formed incrementally for  20 cycles.
 Integral accuracy reduced to 1.0D-05 until final iterations.

 Cycle   1  Pass 0  IDiag  1:
 FoFJK:  IHMeth= 1 ICntrl=     0 DoSepK=T KAlg= 1 I1Cent= 0 FoldK=F
 FoFCou: FMM=F IPFlag=           0 FMFlag=      100000 FMFlg1=           0
         NFxFlg=           0 DoJE=T BraDBF=F KetDBF=F FulRan=T
         Omega=  0.000000  0.000000  1.000000  0.000000  0.000000 ICntrl=     500 IOpCl=  0
         NMat0=    1 NMatS0=    1 NMatT0=    0 NMatD0=    1 NMtDS0=    0 NMtDT0=    0
         I1Cent=           0 NGrid=           0.
 Symmetry not used in FoFCou.
 E= -228.604998413646    
 DIIS: error= 2.95D-02 at cycle   1 NSaved=   1.
 NSaved= 1 IEnMin= 1 EnMin= -228.604998413646     IErMin= 1 ErrMin= 2.95D-02
 ErrMax= 2.95D-02 EMaxC= 1.00D-01 BMatC= 1.83D-02 BMatP= 1.83D-02
 IDIUse=3 WtCom= 7.05D-01 WtEn= 2.95D-01
 Coeff-Com:  0.100D+01
 Coeff-En:   0.100D+01
 Coeff:      0.100D+01
 Gap=     0.501 Goal=   None    Shift=    0.000
 GapD=    0.501 DampG=2.000 DampE=0.500 DampFc=1.0000 IDamp=-1.
 RMSDP=6.98D-03 MaxDP=5.92D-02              OVMax= 0.00D+00

 Cycle   2  Pass 0  IDiag  1:
 RMSU=  4.91D-03    CP:  9.93D-01
 FoFJK:  IHMeth= 1 ICntrl=     0 DoSepK=T KAlg= 1 I1Cent= 0 FoldK=F
 E= -228.630767240052     Delta-E=       -0.025768826406 Rises=F Damp=F
 DIIS: error= 5.86D-03 at cycle   2 NSaved=   2.
 NSaved= 2 IEnMin= 2 EnMin= -228.630767240052     IErMin= 2 ErrMin= 5.86D-03
 ErrMax= 5.86D-03 EMaxC= 1.00D-01 BMatC= 7.38D-04 BMatP= 1.83D-02
 IDIUse=3 WtCom= 9.41D-01 WtEn= 5.86D-02
 Coeff-Com:  0.151D+00 0.849D+00
 Coeff-En:   0.000D+00 0.100D+01
 Coeff:      0.142D+00 0.858D+00
 Gap=     0.501 Goal=   None    Shift=    0.000
 RMSDP=1.22D-03 MaxDP=1.02D-02 DE=-2.58D-02 OVMax= 0.00D+00

 Cycle   3  Pass 0  IDiag  1:
 RMSU=  3.50D-04    CP:  9.94D-01  8.41D-01
 FoFJK:  IHMeth= 1 ICntrl=     0 DoSepK=T KAlg= 1 I1Cent= 0 FoldK=F
 E= -228.631809530544     Delta-E=       -0.001042290492 Rises=F Damp=F
 DIIS: error= 4.91D-04 at cycle   3 NSaved=   3.
 NSaved= 3 IEnMin= 3 EnMin= -228.631809530544     IErMin= 3 ErrMin= 4.91D-04
 ErrMax= 4.91D-04 EMaxC= 1.00D-01 BMatC= 3.67D-06 BMatP= 7.38D-04
 IDIUse=3 WtCom= 9.95D-01 WtEn= 4.91D-03
 Coeff-Com: -0.193D-01-0.618D-01 0.108D+01
 Coeff-En:   0.000D+00 0.000D+00 0.100D+01
 Coeff:     -0.192D-01-0.615D-01 0.108D+01
 Gap=     0.501 Goal=   None    Shift=    0.000
 RMSDP=1.01D-04 MaxDP=5.66D-04 DE=-1.04D-03 OVMax= 0.00D+00

 Cycle   4  Pass 0  IDiag  1:
 RMSU=  2.22D-05    CP:  9.94D-01  8.47D-01  1.17D+00
 FoFJK:  IHMeth= 1 ICntrl=     0 DoSepK=T KAlg= 1 I1Cent= 0 FoldK=F
 E= -228.631816307282     Delta-E=       -0.000006776738 Rises=F Damp=F
 DIIS: error= 5.24D-05 at cycle   4 NSaved=   4.
 NSaved= 4 IEnMin= 4 EnMin= -228.631816307282     IErMin= 4 ErrMin= 5.24D-05
 ErrMax= 5.24D-05 EMaxC= 1.00D-01 BMatC= 5.01D-08 BMatP= 3.67D-06
 IDIUse=1 WtCom= 1.00D+00 WtEn= 0.00D+00
 Coeff-Com:  0.153D-02 0.156D-02-0.170D+00 0.117D+01
 Coeff:      0.153D-02 0.156D-02-0.170D+00 0.117D+01
 Gap=     0.501 Goal=   None    Shift=    0.000
 RMSDP=1.42D-05 MaxDP=9.03D-05 DE=-6.78D-06 OVMax= 0.00D+00

 Cycle   5  Pass 0  IDiag  1:
 RMSU=  1.72D-06    CP:  9.94D-01  8.47D-01  1.19D+00  1.22D+00
 FoFJK:  IHMeth= 1 ICntrl=     0 DoSepK=T KAlg= 1 I1Cent= 0 FoldK=F
 E= -228.631816642825     Delta-E=       -0.000000335543 Rises=F Damp=F
 DIIS: error= 1.97D-06 at cycle   5 NSaved=   5.
 NSaved= 5 IEnMin= 5 EnMin= -228.631816642825     IErMin= 5 ErrMin= 1.97D-06
 ErrMax= 1.97D-06 EMaxC= 1.00D-01 BMatC= 1.94D-10 BMatP= 5.01D-08
 IDIUse=1 WtCom= 1.00D+00 WtEn= 0.00D+00
 Coeff-Com: -0.614D-04-0.547D-04 0.885D-02-0.776D-01 0.107D+01
 Coeff:     -0.614D-04-0.547D-04 0.885D-02-0.776D-01 0.107D+01
 Gap=     0.501 Goal=   None    Shift=    0.000
 RMSDP=7.82D-07 MaxDP=5.30D-06 DE=-3.36D-07 OVMax= 0.00D+00

 Initial convergence to 1.0D-05 achieved.  Increase integral accuracy.
 Cycle   6  Pass 1  IDiag  1:
 FoFJK:  IHMeth= 1 ICntrl=     0 DoSepK=T KAlg= 1 I1Cent= 0 FoldK=F
 E= -228.631781042694     Delta-E=        0.000035600131 Rises=F Damp=F
 DIIS: error= 4.41D-06 at cycle   1 NSaved=   1.
 NSaved= 1 IEnMin= 1 EnMin= -228.631781042694     IErMin= 1 ErrMin= 4.41D-06
 ErrMax= 4.41D-06 EMaxC= 1.00D-01 BMatC= 1.79D-10 BMatP= 1.79D-10
 IDIUse=1 WtCom= 1.00D+00 WtEn= 0.00D+00
 Coeff-Com:  0.100D+01
 Coeff:      0.100D+01
 Gap=     0.501 Goal=   None    Shift=    0.000
 RMSDP=7.82D-07 MaxDP=5.30D-06 DE= 3.56D-05 OVMax= 0.00D+00

 Cycle   7  Pass 1  IDiag  1:
 RMSU=  3.76D-07    CP:  1.00D+00
 FoFJK:  IHMeth= 1 ICntrl=     0 DoSepK=T KAlg= 1 I1Cent= 0 FoldK=F
 E= -228.631781042945     Delta-E=       -0.000000000251 Rises=F Damp=F
 DIIS: error= 8.72D-07 at cycle   2 NSaved=   2.
 NSaved= 2 IEnMin= 2 EnMin= -228.631781042945     IErMin= 2 ErrMin= 8.72D-07
 ErrMax= 8.72D-07 EMaxC= 1.00D-01 BMatC= 1.98D-11 BMatP= 1.79D-10
 IDIUse=1 WtCom= 1.00D+00 WtEn= 0.00D+00
 Coeff-Com:  0.119D+00 0.881D+00
 Coeff:      0.119D+00 0.881D+00
 Gap=     0.501 Goal=   None    Shift=    0.000
 RMSDP=2.03D-07 MaxDP=2.03D-06 DE=-2.51D-10 OVMax= 0.00D+00

 Cycle   8  Pass 1  IDiag  1:
 RMSU=  1.36D-07    CP:  1.00D+00  8.84D-01
 FoFJK:  IHMeth= 1 ICntrl=     0 DoSepK=T KAlg= 1 I1Cent= 0 FoldK=F
 E= -228.631781042967     Delta-E=       -0.000000000022 Rises=F Damp=F
 DIIS: error= 3.07D-07 at cycle   3 NSaved=   3.
 NSaved= 3 IEnMin= 3 EnMin= -228.631781042967     IErMin= 3 ErrMin= 3.07D-07
 ErrMax= 3.07D-07 EMaxC= 1.00D-01 BMatC= 3.65D-12 BMatP= 1.98D-11
 IDIUse=1 WtCom= 1.00D+00 WtEn= 0.00D+00
 Coeff-Com: -0.765D-01 0.244D+00 0.832D+00
 Coeff:     -0.765D-01 0.244D+00 0.832D+00
 Gap=     0.501 Goal=   None    Shift=    0.000
 RMSDP=6.35D-08 MaxDP=5.47D-07 DE=-2.21D-11 OVMax= 0.00D+00

 Cycle   9  Pass 1  IDiag  1:
 RMSU=  1.40D-08    CP:  1.00D+00  9.86D-01  8.68D-01
 FoFJK:  IHMeth= 1 ICntrl=     0 DoSepK=T KAlg= 1 I1Cent= 0 FoldK=F
 E= -228.631781042986     Delta-E=       -0.000000000019 Rises=F Damp=F
 DIIS: error= 1.84D-08 at cycle   4 NSaved=   4.
 NSaved= 4 IEnMin= 4 EnMin= -228.631781042986     IErMin= 4 ErrMin= 1.84D-08
 ErrMax= 1.84D-08 EMaxC= 1.00D-01 BMatC= 9.69D-15 BMatP= 3.65D-12
 IDIUse=1 WtCom= 1.00D+00 WtEn= 0.00D+00
 Coeff-Com:  0.926D-02-0.390D-01-0.133D+00 0.116D+01
 Coeff:      0.926D-02-0.390D-01-0.133D+00 0.116D+01
 Gap=     0.501 Goal=   None    Shift=    0.000
 RMSDP=6.51D-09 MaxDP=4.08D-08 DE=-1.94D-11 OVMax= 0.00D+00

 SCF Done:  E(RLC-B+HF-LYP) =  -228.631781043     A.U. after    9 cycles
             Convg  =    0.6513D-08             -V/T =  2.0138
 KE= 2.255161239427D+02 PE=-9.381201174226D+02 EE= 2.803222369350D+02
 Leave Link  502 at Tue Sep  1 09:11:28 2015, MaxMem=  134217728 cpu:       3.2
 (Enter /apps/Gausian/g09/l801.exe)
 Range of M.O.s used for correlation:     1    36
 NBasis=    36 NAE=    21 NBE=    21 NFC=     0 NFV=     0
 NROrb=     36 NOA=    21 NOB=    21 NVA=    15 NVB=    15
 Leave Link  801 at Tue Sep  1 09:11:28 2015, MaxMem=  134217728 cpu:       0.0
 (Enter /apps/Gausian/g09/l1101.exe)
 Using compressed storage, NAtomX=    12.
 Will process  13 centers per pass.
 Leave Link 1101 at Tue Sep  1 09:11:28 2015, MaxMem=  134217728 cpu:       0.1
 (Enter /apps/Gausian/g09/l1102.exe)
 Symmetrizing basis deriv contribution to polar:
 IMax=3 JMax=2 DiffMx= 0.00D+00
 Leave Link 1102 at Tue Sep  1 09:11:28 2015, MaxMem=  134217728 cpu:       0.0
 (Enter /apps/Gausian/g09/l1110.exe)
 Forming Gx(P) for the SCF density, NAtomX=    12.
 Integral derivatives from FoFDir/FoFCou, PRISM(SPDF).
 Do as many integral derivatives as possible in FoFDir.
 G2DrvN: MDV=     134217528.
 G2DrvN: will do    13 centers at a time, making    1 passes doing MaxLOS=1.
 Calling FoFCou, ICntrl=  3107 FMM=F I1Cent=   0 AccDes= 0.00D+00.
 FoFJK:  IHMeth= 1 ICntrl=  3107 DoSepK=T KAlg= 1 I1Cent= 0 FoldK=F
 FoFCou: FMM=F IPFlag=           0 FMFlag=      100000 FMFlg1=           0
         NFxFlg=           0 DoJE=F BraDBF=F KetDBF=F FulRan=T
         Omega=  0.000000  0.000000  1.000000  0.000000  0.000000 ICntrl=    3507 IOpCl=  0
         NMat0=    1 NMatS0=    1 NMatT0=    0 NMatD0=    1 NMtDS0=    0 NMtDT0=    0
         I1Cent=           0 NGrid=           0.
 Symmetry not used in FoFCou.
 FoFDir/FoFCou used for L=0 through L=1.
 End of G2Drv Frequency-dependent properties file   721 does not exist.
 End of G2Drv Frequency-dependent properties file   722 does not exist.
 Leave Link 1110 at Tue Sep  1 09:11:34 2015, MaxMem=  134217728 cpu:       5.6
 (Enter /apps/Gausian/g09/l1002.exe)
 Minotr:  Closed shell wavefunction.
          IDoAtm=111111111111
          Direct CPHF calculation.
          Differentiating once with respect to nuclear coordinates.
          Requested convergence is 1.0D-06 RMS, and 1.0D-05 maximum.
          Secondary convergence is 1.0D-12 RMS, and 1.0D-12 maximum.
          NewPWx=T KeepS1=F KeepF1=F KeepIn=T MapXYZ=F SortEE=F KeepMc=T.
          MDV=     134217604 using IRadAn=       2.
 Generate precomputed XC quadrature information.
          Solving linear equations simultaneously, MaxMat=       0.
 FoFJK:  IHMeth= 1 ICntrl=     0 DoSepK=T KAlg= 1 I1Cent= 0 FoldK=F
 FoFCou: FMM=F IPFlag=           0 FMFlag=      100000 FMFlg1=           0
         NFxFlg=           0 DoJE=F BraDBF=F KetDBF=F FulRan=T
         Omega=  0.000000  0.000000  1.000000  0.000000  0.000000 ICntrl=     500 IOpCl=  0
         NMat0=   39 NMatS0=   39 NMatT0=    0 NMatD0=   39 NMtDS0=    0 NMtDT0=    0
         I1Cent=           0 NGrid=           0.
 Symmetry not used in FoFCou.
          There are    39 degrees of freedom in the 1st order CPHF.  IDoFFX=5.
     33 vectors produced by pass  0 Test12= 8.08D-12 2.56D-07 XBig12= 4.63D-02 1.45D-01.
 AX will form    33 AO Fock derivatives at one time.
 FoFJK:  IHMeth= 1 ICntrl=     0 DoSepK=T KAlg= 1 I1Cent= 0 FoldK=F
     33 vectors produced by pass  1 Test12= 8.08D-12 2.56D-07 XBig12= 1.14D-03 1.37D-02.
 FoFJK:  IHMeth= 1 ICntrl=     0 DoSepK=T KAlg= 1 I1Cent= 0 FoldK=F
     33 vectors produced by pass  2 Test12= 8.08D-12 2.56D-07 XBig12= 4.83D-06 7.79D-04.
 FoFJK:  IHMeth= 1 ICntrl=     0 DoSepK=T KAlg= 1 I1Cent= 0 FoldK=F
     33 vectors produced by pass  3 Test12= 8.08D-12 2.56D-07 XBig12= 2.55D-08 4.16D-05.
 FoFJK:  IHMeth= 1 ICntrl=     0 DoSepK=T KAlg= 1 I1Cent= 0 FoldK=F
     18 vectors produced by pass  4 Test12= 8.08D-12 2.56D-07 XBig12= 7.43D-11 2.62D-06.
 FoFJK:  IHMeth= 1 ICntrl=     0 DoSepK=T KAlg= 1 I1Cent= 0 FoldK=F
 Inverted reduced A of dimension   150 with in-core refinement.
 End of Minotr Frequency-dependent properties file   721 does not exist.
 End of Minotr Frequency-dependent properties file   722 does not exist.
 Leave Link 1002 at Tue Sep  1 09:11:39 2015, MaxMem=  134217728 cpu:       4.4
 (Enter /apps/Gausian/g09/l601.exe)
 Copying SCF densities to generalized density rwf, IOpCl= 0 IROHF=0.

 **********************************************************************

            Population analysis using the SCF density.

 **********************************************************************

 Alpha  occ. eigenvalues --   -9.96511  -9.96464  -9.96463  -9.96385  -9.96385
 Alpha  occ. eigenvalues --   -9.96322  -0.97984  -0.86218  -0.86211  -0.70604
 Alpha  occ. eigenvalues --   -0.70596  -0.62754  -0.55352  -0.52841  -0.50727
 Alpha  occ. eigenvalues --   -0.50722  -0.45763  -0.41548  -0.41543  -0.30182
 Alpha  occ. eigenvalues --   -0.30173
 Alpha virt. eigenvalues --    0.19911   0.19921   0.40261   0.47992   0.53572
 Alpha virt. eigenvalues --    0.53578   0.61409   0.62160   0.62180   0.73952
 Alpha virt. eigenvalues --    0.73960   0.75175   0.75201   0.91226   0.97518
          Condensed to atoms (all electrons):
              1          2          3          4          5          6
     1  C    4.799917   0.393278  -0.012405   0.000035   0.505991  -0.024287
     2  H    0.393278   0.571136   0.000035   0.000002  -0.024283  -0.003690
     3  C   -0.012405   0.000035   4.799917   0.393278  -0.029051   0.001362
     4  H    0.000035   0.000002   0.393278   0.571136   0.001363  -0.000029
     5  C    0.505991  -0.024283  -0.029051   0.001363   4.799951   0.393274
     6  H   -0.024287  -0.003690   0.001362  -0.000029   0.393274   0.571119
     7  C    0.505991  -0.024283  -0.029051   0.001363  -0.029059   0.001363
     8  H   -0.024287  -0.003690   0.001362  -0.000029   0.001363  -0.000029
     9  C   -0.029051   0.001363   0.505991  -0.024283   0.505912  -0.024267
    10  H    0.001362  -0.000029  -0.024287  -0.003690  -0.024267  -0.003682
    11  C   -0.029051   0.001363   0.505991  -0.024283  -0.012410   0.000035
    12  H    0.001362  -0.000029  -0.024287  -0.003690   0.000035   0.000002
              7          8          9         10         11         12
     1  C    0.505991  -0.024287  -0.029051   0.001362  -0.029051   0.001362
     2  H   -0.024283  -0.003690   0.001363  -0.000029   0.001363  -0.000029
     3  C   -0.029051   0.001362   0.505991  -0.024287   0.505991  -0.024287
     4  H    0.001363  -0.000029  -0.024283  -0.003690  -0.024283  -0.003690
     5  C   -0.029059   0.001363   0.505912  -0.024267  -0.012410   0.000035
     6  H    0.001363  -0.000029  -0.024267  -0.003682   0.000035   0.000002
     7  C    4.799951   0.393274  -0.012410   0.000035   0.505912  -0.024267
     8  H    0.393274   0.571119   0.000035   0.000002  -0.024267  -0.003682
     9  C   -0.012410   0.000035   4.799951   0.393274  -0.029059   0.001363
    10  H    0.000035   0.000002   0.393274   0.571119   0.001363  -0.000029
    11  C    0.505912  -0.024267  -0.029059   0.001363   4.799951   0.393274
    12  H   -0.024267  -0.003682   0.001363  -0.000029   0.393274   0.571119
 Mulliken atomic charges:
              1
     1  C   -0.088853
     2  H    0.088829
     3  C   -0.088853
     4  H    0.088829
     5  C   -0.088819
     6  H    0.088831
     7  C   -0.088819
     8  H    0.088831
     9  C   -0.088819
    10  H    0.088831
    11  C   -0.088819
    12  H    0.088831
 Sum of Mulliken atomic charges =   0.00000
 Mulliken charges with hydrogens summed into heavy atoms:
              1
     1  C   -0.000024
     3  C   -0.000024
     5  C    0.000012
     7  C    0.000012
     9  C    0.000012
    11  C    0.000012
 Sum of Mulliken charges with hydrogens summed into heavy atoms =   0.00000
 APT atomic charges:
              1
     1  C   -0.549871
     2  H    0.549874
     3  C   -0.549871
     4  H    0.549874
     5  C   -0.549883
     6  H    0.549882
     7  C   -0.549883
     8  H    0.549882
     9  C   -0.549883
    10  H    0.549882
    11  C   -0.549883
    12  H    0.549882
 Sum of APT charges=   0.00000
 APT Atomic charges with hydrogens summed into heavy atoms:
              1
     1  C    0.000003
     2  H    0.000000
     3  C    0.000003
     4  H    0.000000
     5  C   -0.000001
     6  H    0.000000
     7  C   -0.000001
     8  H    0.000000
     9  C   -0.000001
    10  H    0.000000
    11  C   -0.000001
    12  H    0.000000
 Sum of APT charges=   0.00000
 Electronic spatial extent (au):  <R**2>=            451.8164
 Charge=              0.0000 electrons
 Dipole moment (field-independent basis, Debye):
    X=              0.0000    Y=              0.0000    Z=              0.0000  Tot=              0.0000
 Quadrupole moment (field-independent basis, Debye-Ang):
   XX=            -29.9628   YY=            -29.9651   ZZ=            -35.0685
   XY=              0.0000   XZ=              0.0000   YZ=              0.0000
 Traceless Quadrupole moment (field-independent basis, Debye-Ang):
   XX=              1.7027   YY=              1.7004   ZZ=             -3.4031
   XY=              0.0000   XZ=              0.0000   YZ=              0.0000
 Octapole moment (field-independent basis, Debye-Ang**2):
  XXX=              0.0000  YYY=              0.0000  ZZZ=              0.0000  XYY=              0.0000
  XXY=              0.0000  XXZ=              0.0000  XZZ=              0.0000  YZZ=              0.0000
  YYZ=              0.0000  XYZ=              0.0000
 Hexadecapole moment (field-independent basis, Debye-Ang**3):
 XXXX=           -249.6514 YYYY=           -249.6276 ZZZZ=            -28.4605 XXXY=              0.0000
 XXXZ=              0.0000 YYYX=              0.0000 YYYZ=              0.0000 ZZZX=              0.0000
 ZZZY=              0.0000 XXYY=            -83.2048 XXZZ=            -53.4219 YYZZ=            -53.4147
 XXYZ=              0.0000 YYXZ=              0.0000 ZZXY=              0.0000
 N-N= 2.036499755020D+02 E-N=-9.381201169410D+02  KE= 2.255161239427D+02
  Exact polarizability:   0.000   0.000   0.000   0.000   0.000   0.000
 Approx polarizability:  51.080   0.000  51.080   0.000   0.000   5.589
 No NMR shielding tensors so no spin-rotation constants.
 Leave Link  601 at Tue Sep  1 09:11:39 2015, MaxMem=  134217728 cpu:       0.1
 (Enter /apps/Gausian/g09/l701.exe)
 Compute integral second derivatives.
 ... and contract with generalized density number  0.
 Leave Link  701 at Tue Sep  1 09:11:39 2015, MaxMem=  134217728 cpu:       0.1
 (Enter /apps/Gausian/g09/l702.exe)
 L702 exits ... SP integral derivatives will be done elsewhere.
 Leave Link  702 at Tue Sep  1 09:11:39 2015, MaxMem=  134217728 cpu:       0.0
 (Enter /apps/Gausian/g09/l703.exe)
 Compute integral second derivatives, UseDBF=F ICtDFT=           0.
 Integral derivatives from FoFDir, PRISM(SPDF).
 Calling FoFJK, ICntrl=    100147 FMM=F ISym2X=0 I1Cent= 0 IOpClX= 0 NMat=1 NMatS=1 NMatT=0.
 FoFJK:  IHMeth= 1 ICntrl=100147 DoSepK=T KAlg= 1 I1Cent= 0 FoldK=F
 FoFCou: FMM=F IPFlag=           0 FMFlag=      100000 FMFlg1=         800
         NFxFlg=           0 DoJE=F BraDBF=F KetDBF=F FulRan=T
         Omega=  0.000000  0.000000  1.000000  0.000000  0.000000 ICntrl=  100547 IOpCl=  0
         NMat0=    1 NMatS0=    1 NMatT0=    0 NMatD0=    1 NMtDS0=    0 NMtDT0=    0
         I1Cent=           0 NGrid=           0.
 Symmetry not used in FoFCou.
 Leave Link  703 at Tue Sep  1 09:11:46 2015, MaxMem=  134217728 cpu:       6.7
 (Enter /apps/Gausian/g09/l716.exe)
 Dipole        = 5.49922042D-14 3.61898012D-14-5.99292684D-15
 Polarizability= 0.00000000D+00 0.00000000D+00 0.00000000D+00
                 0.00000000D+00 0.00000000D+00 0.00000000D+00
 -------------------------------------------------------------------
 Center     Atomic                   Forces (Hartrees/Bohr)
 Number     Number              X              Y              Z
 -------------------------------------------------------------------
      1        6           0.000032215    0.000000000    0.000000000
      2        1           0.000010990    0.000000000    0.000000000
      3        6          -0.000032215    0.000000000    0.000000000
      4        1          -0.000010990    0.000000000    0.000000000
      5        6          -0.000219920    0.000005548    0.000000000
      6        1          -0.000013935    0.000029556    0.000000000
      7        6          -0.000219920   -0.000005548    0.000000000
      8        1          -0.000013935   -0.000029556    0.000000000
      9        6           0.000219920    0.000005548    0.000000000
     10        1           0.000013935    0.000029556    0.000000000
     11        6           0.000219920   -0.000005548    0.000000000
     12        1           0.000013935   -0.000029556    0.000000000
 -------------------------------------------------------------------
 Cartesian Forces:  Max     0.000219920 RMS     0.000074567
 Force constants in Cartesian coordinates: 
                1             2             3             4             5 
      1  0.935163D+00
      2  0.000000D+00  0.784491D+00
      3  0.000000D+00  0.000000D+00  0.168932D+00
      4 -0.437476D+00  0.000000D+00  0.000000D+00  0.447888D+00
      5  0.000000D+00 -0.697092D-01  0.000000D+00  0.000000D+00  0.671535D-01
      6  0.000000D+00  0.000000D+00 -0.474416D-01  0.000000D+00  0.000000D+00
      7  0.195800D-02  0.000000D+00  0.000000D+00  0.158648D-02  0.000000D+00
      8  0.000000D+00 -0.141208D+00  0.000000D+00  0.000000D+00 -0.809596D-03
      9  0.000000D+00  0.000000D+00 -0.118378D-01  0.000000D+00  0.000000D+00
     10  0.158647D-02  0.000000D+00  0.000000D+00 -0.344477D-03  0.000000D+00
     11  0.000000D+00 -0.809584D-03  0.000000D+00  0.000000D+00  0.180502D-03
     12  0.000000D+00  0.000000D+00 -0.942568D-03  0.000000D+00  0.000000D+00
     13 -0.227699D+00  0.294015D-01  0.000000D+00 -0.709461D-02  0.333473D-01
     14  0.170035D+00 -0.342946D+00  0.000000D+00 -0.751440D-02  0.469917D-02
     15  0.000000D+00  0.000000D+00 -0.797898D-01  0.000000D+00  0.000000D+00
     16  0.129399D-01  0.217799D-01  0.000000D+00  0.135765D-02 -0.389932D-03
     17 -0.190869D-01 -0.153357D-01  0.000000D+00 -0.325534D-03  0.176990D-02
     18  0.000000D+00  0.000000D+00  0.520058D-02  0.000000D+00  0.000000D+00
     19 -0.227699D+00 -0.294015D-01  0.000000D+00 -0.709462D-02 -0.333473D-01
     20 -0.170035D+00 -0.342946D+00  0.000000D+00  0.751439D-02  0.469917D-02
     21  0.000000D+00  0.000000D+00 -0.797898D-01  0.000000D+00  0.000000D+00
     22  0.129399D-01 -0.217800D-01  0.000000D+00  0.135765D-02  0.389932D-03
     23  0.190870D-01 -0.153357D-01  0.000000D+00  0.325534D-03  0.176990D-02
     24  0.000000D+00  0.000000D+00  0.520056D-02  0.000000D+00  0.000000D+00
     25 -0.303150D-01  0.143081D+00  0.000000D+00  0.239464D-03  0.143322D-02
     26  0.329360D-01  0.712949D-01  0.000000D+00  0.253716D-02 -0.517613D-02
     27  0.000000D+00  0.000000D+00  0.112440D-01  0.000000D+00  0.000000D+00
     28 -0.554168D-02 -0.190571D-02  0.000000D+00 -0.329551D-03  0.130078D-02
     29 -0.800928D-03  0.604314D-03  0.000000D+00 -0.211565D-03  0.299501D-03
     30  0.000000D+00  0.000000D+00  0.899050D-02  0.000000D+00  0.000000D+00
     31 -0.303150D-01 -0.143081D+00  0.000000D+00  0.239475D-03 -0.143322D-02
     32 -0.329360D-01  0.712950D-01  0.000000D+00 -0.253716D-02 -0.517613D-02
     33  0.000000D+00  0.000000D+00  0.112440D-01  0.000000D+00  0.000000D+00
     34 -0.554168D-02  0.190569D-02  0.000000D+00 -0.329551D-03 -0.130078D-02
     35  0.800920D-03  0.604290D-03  0.000000D+00  0.211566D-03  0.299501D-03
     36  0.000000D+00  0.000000D+00  0.899049D-02  0.000000D+00  0.000000D+00
                6             7             8             9            10 
      6  0.320810D-01
      7  0.000000D+00  0.935163D+00
      8  0.000000D+00  0.000000D+00  0.784491D+00
      9 -0.942568D-03  0.000000D+00  0.000000D+00  0.168932D+00
     10  0.000000D+00 -0.437476D+00  0.000000D+00  0.000000D+00  0.447888D+00
     11  0.000000D+00  0.000000D+00 -0.697092D-01  0.000000D+00  0.000000D+00
     12 -0.127821D-02  0.000000D+00  0.000000D+00 -0.474416D-01  0.000000D+00
     13  0.000000D+00 -0.303150D-01 -0.143081D+00  0.000000D+00  0.239485D-03
     14  0.000000D+00 -0.329360D-01  0.712950D-01  0.000000D+00 -0.253715D-02
     15  0.520278D-02  0.000000D+00  0.000000D+00  0.112439D-01  0.000000D+00
     16  0.000000D+00 -0.554167D-02  0.190570D-02  0.000000D+00 -0.329550D-03
     17  0.000000D+00  0.800934D-03  0.604271D-03  0.000000D+00  0.211568D-03
     18 -0.528773D-02  0.000000D+00  0.000000D+00  0.899050D-02  0.000000D+00
     19  0.000000D+00 -0.303150D-01  0.143081D+00  0.000000D+00  0.239474D-03
     20  0.000000D+00  0.329360D-01  0.712949D-01  0.000000D+00  0.253715D-02
     21  0.520278D-02  0.000000D+00  0.000000D+00  0.112439D-01  0.000000D+00
     22  0.000000D+00 -0.554168D-02 -0.190571D-02  0.000000D+00 -0.329549D-03
     23  0.000000D+00 -0.800927D-03  0.604288D-03  0.000000D+00 -0.211569D-03
     24 -0.528773D-02  0.000000D+00  0.000000D+00  0.899052D-02  0.000000D+00
     25  0.000000D+00 -0.227699D+00 -0.294014D-01  0.000000D+00 -0.709462D-02
     26  0.000000D+00 -0.170035D+00 -0.342946D+00  0.000000D+00  0.751437D-02
     27  0.899187D-02  0.000000D+00  0.000000D+00 -0.797898D-01  0.000000D+00
     28  0.000000D+00  0.129399D-01 -0.217799D-01  0.000000D+00  0.135765D-02
     29  0.000000D+00  0.190870D-01 -0.153357D-01  0.000000D+00  0.325536D-03
     30 -0.116229D-03  0.000000D+00  0.000000D+00  0.520058D-02  0.000000D+00
     31  0.000000D+00 -0.227699D+00  0.294015D-01  0.000000D+00 -0.709461D-02
     32  0.000000D+00  0.170035D+00 -0.342946D+00  0.000000D+00 -0.751438D-02
     33  0.899187D-02  0.000000D+00  0.000000D+00 -0.797898D-01  0.000000D+00
     34  0.000000D+00  0.129399D-01  0.217799D-01  0.000000D+00  0.135765D-02
     35  0.000000D+00 -0.190870D-01 -0.153357D-01  0.000000D+00 -0.325534D-03
     36 -0.116228D-03  0.000000D+00  0.000000D+00  0.520059D-02  0.000000D+00
               11            12            13            14            15 
     11  0.671535D-01
     12  0.000000D+00  0.320810D-01
     13 -0.143322D-02  0.000000D+00  0.821307D+00
     14 -0.517614D-02  0.000000D+00  0.653110D-01  0.897775D+00
     15  0.000000D+00  0.899187D-02  0.000000D+00  0.000000D+00  0.168959D+00
     16 -0.130078D-02  0.000000D+00 -0.161643D+00 -0.159244D+00  0.000000D+00
     17  0.299501D-03  0.000000D+00 -0.159215D+00 -0.345667D+00  0.000000D+00
     18  0.000000D+00 -0.116229D-03  0.000000D+00  0.000000D+00 -0.474186D-01
     19  0.143322D-02  0.000000D+00  0.122125D+00 -0.550702D-01  0.000000D+00
     20 -0.517613D-02  0.000000D+00  0.550701D-01 -0.810531D-01  0.000000D+00
     21  0.000000D+00  0.899187D-02  0.000000D+00  0.000000D+00  0.112478D-01
     22  0.130078D-02  0.000000D+00 -0.210119D-02 -0.278586D-02  0.000000D+00
     23  0.299500D-03  0.000000D+00 -0.389397D-02 -0.283192D-02  0.000000D+00
     24  0.000000D+00 -0.116232D-03  0.000000D+00  0.000000D+00  0.899218D-02
     25 -0.333473D-01  0.000000D+00 -0.399826D+00 -0.702978D-01  0.000000D+00
     26  0.469917D-02  0.000000D+00  0.702977D-01 -0.170260D+00  0.000000D+00
     27  0.000000D+00  0.520278D-02  0.000000D+00  0.000000D+00 -0.798471D-01
     28  0.389930D-03  0.000000D+00 -0.942114D-02  0.319810D-01  0.000000D+00
     29  0.176990D-02  0.000000D+00 -0.886143D-02  0.704395D-02  0.000000D+00
     30  0.000000D+00 -0.528773D-02  0.000000D+00  0.000000D+00  0.519173D-02
     31  0.333473D-01  0.000000D+00 -0.105361D+00  0.620193D-01  0.000000D+00
     32  0.469916D-02  0.000000D+00  0.620194D-01 -0.338683D-01  0.000000D+00
     33  0.000000D+00  0.520278D-02  0.000000D+00  0.000000D+00 -0.118323D-01
     34 -0.389930D-03  0.000000D+00 -0.210091D-03  0.103965D-02  0.000000D+00
     35  0.176990D-02  0.000000D+00  0.103723D-02  0.989196D-03  0.000000D+00
     36  0.000000D+00 -0.528773D-02  0.000000D+00  0.000000D+00 -0.942028D-03
               16            17            18            19            20 
     16  0.162308D+00
     17  0.164841D+00  0.352838D+00
     18  0.000000D+00  0.000000D+00  0.320694D-01
     19 -0.210118D-02  0.389399D-02  0.000000D+00  0.821307D+00
     20  0.278587D-02 -0.283190D-02  0.000000D+00 -0.653110D-01  0.897775D+00
     21  0.000000D+00  0.000000D+00  0.899215D-02  0.000000D+00  0.000000D+00
     22  0.613449D-03 -0.756458D-03  0.000000D+00 -0.161643D+00  0.159244D+00
     23  0.756457D-03 -0.644305D-03  0.000000D+00  0.159215D+00 -0.345667D+00
     24  0.000000D+00  0.000000D+00 -0.116846D-03  0.000000D+00  0.000000D+00
     25 -0.942113D-02  0.886147D-02  0.000000D+00 -0.105361D+00 -0.620193D-01
     26 -0.319809D-01  0.704399D-02  0.000000D+00 -0.620193D-01 -0.338683D-01
     27  0.000000D+00  0.000000D+00  0.519173D-02  0.000000D+00  0.000000D+00
     28  0.197909D-02 -0.347960D-04  0.000000D+00 -0.210083D-03 -0.103963D-02
     29  0.347905D-04  0.114757D-02  0.000000D+00 -0.103724D-02  0.989164D-03
     30  0.000000D+00  0.000000D+00 -0.528539D-02  0.000000D+00  0.000000D+00
     31 -0.210086D-03  0.103722D-02  0.000000D+00 -0.399826D+00  0.702977D-01
     32  0.103963D-02  0.989173D-03  0.000000D+00 -0.702978D-01 -0.170260D+00
     33  0.000000D+00  0.000000D+00 -0.942034D-03  0.000000D+00  0.000000D+00
     34  0.489641D-04 -0.227541D-03  0.000000D+00 -0.942113D-02 -0.319809D-01
     35 -0.227543D-03 -0.213474D-03  0.000000D+00  0.886145D-02  0.704396D-02
     36  0.000000D+00  0.000000D+00 -0.127752D-02  0.000000D+00  0.000000D+00
               21            22            23            24            25 
     21  0.168959D+00
     22  0.000000D+00  0.162308D+00
     23  0.000000D+00 -0.164841D+00  0.352838D+00
     24 -0.474186D-01  0.000000D+00  0.000000D+00  0.320694D-01
     25  0.000000D+00 -0.210074D-03 -0.103724D-02  0.000000D+00  0.821307D+00
     26  0.000000D+00 -0.103963D-02  0.989172D-03  0.000000D+00 -0.653110D-01
     27 -0.118322D-01  0.000000D+00  0.000000D+00 -0.942057D-03  0.000000D+00
     28  0.000000D+00  0.489659D-04  0.227538D-03  0.000000D+00 -0.161643D+00
     29  0.000000D+00  0.227541D-03 -0.213467D-03  0.000000D+00  0.159215D+00
     30 -0.942040D-03  0.000000D+00  0.000000D+00 -0.127752D-02  0.000000D+00
     31  0.000000D+00 -0.942115D-02 -0.886144D-02  0.000000D+00  0.122125D+00
     32  0.000000D+00  0.319809D-01  0.704398D-02  0.000000D+00 -0.550703D-01
     33 -0.798471D-01  0.000000D+00  0.000000D+00  0.519169D-02  0.000000D+00
     34  0.000000D+00  0.197909D-02  0.347930D-04  0.000000D+00 -0.210118D-02
     35  0.000000D+00 -0.347896D-04  0.114757D-02  0.000000D+00  0.389399D-02
     36  0.519173D-02  0.000000D+00  0.000000D+00 -0.528538D-02  0.000000D+00
               26            27            28            29            30 
     26  0.897775D+00
     27  0.000000D+00  0.168959D+00
     28  0.159244D+00  0.000000D+00  0.162308D+00
     29 -0.345667D+00  0.000000D+00 -0.164841D+00  0.352838D+00
     30  0.000000D+00 -0.474186D-01  0.000000D+00  0.000000D+00  0.320694D-01
     31  0.550702D-01  0.000000D+00 -0.210119D-02 -0.389397D-02  0.000000D+00
     32 -0.810531D-01  0.000000D+00 -0.278587D-02 -0.283190D-02  0.000000D+00
     33  0.000000D+00  0.112479D-01  0.000000D+00  0.000000D+00  0.899215D-02
     34  0.278587D-02  0.000000D+00  0.613459D-03  0.756442D-03  0.000000D+00
     35 -0.283191D-02  0.000000D+00 -0.756441D-03 -0.644332D-03  0.000000D+00
     36  0.000000D+00  0.899215D-02  0.000000D+00  0.000000D+00 -0.116844D-03
               31            32            33            34            35 
     31  0.821307D+00
     32  0.653110D-01  0.897775D+00
     33  0.000000D+00  0.000000D+00  0.168960D+00
     34 -0.161643D+00 -0.159244D+00  0.000000D+00  0.162308D+00
     35 -0.159215D+00 -0.345667D+00  0.000000D+00  0.164841D+00  0.352838D+00
     36  0.000000D+00  0.000000D+00 -0.474186D-01  0.000000D+00  0.000000D+00
               36 
     36  0.320694D-01
 Leave Link  716 at Tue Sep  1 09:11:46 2015, MaxMem=  134217728 cpu:       0.0
 (Enter /apps/Gausian/g09/l103.exe)

 GradGradGradGradGradGradGradGradGradGradGradGradGradGradGradGradGradGrad
 Berny optimization.
 Search for a local minimum.
 Step number   1 out of a maximum of  100
 All quantities printed in internal units (Hartrees-Bohrs-Radians)
 Second derivative matrix not updated -- analytic derivatives used.
 The second derivative matrix:
                          X1        Y1        Z1        X2        Y2
           X1           0.93516
           Y1           0.00000   0.78449
           Z1           0.00000   0.00000   0.16893
           X2          -0.43748   0.00000   0.00000   0.44789
           Y2           0.00000  -0.06971   0.00000   0.00000   0.06715
           Z2           0.00000   0.00000  -0.04744   0.00000   0.00000
           X3           0.00196   0.00000   0.00000   0.00159   0.00000
           Y3           0.00000  -0.14121   0.00000   0.00000  -0.00081
           Z3           0.00000   0.00000  -0.01184   0.00000   0.00000
           X4           0.00159   0.00000   0.00000  -0.00034   0.00000
           Y4           0.00000  -0.00081   0.00000   0.00000   0.00018
           Z4           0.00000   0.00000  -0.00094   0.00000   0.00000
           X5          -0.22770   0.02940   0.00000  -0.00709   0.03335
           Y5           0.17003  -0.34295   0.00000  -0.00751   0.00470
           Z5           0.00000   0.00000  -0.07979   0.00000   0.00000
           X6           0.01294   0.02178   0.00000   0.00136  -0.00039
           Y6          -0.01909  -0.01534   0.00000  -0.00033   0.00177
           Z6           0.00000   0.00000   0.00520   0.00000   0.00000
           X7          -0.22770  -0.02940   0.00000  -0.00709  -0.03335
           Y7          -0.17003  -0.34295   0.00000   0.00751   0.00470
           Z7           0.00000   0.00000  -0.07979   0.00000   0.00000
           X8           0.01294  -0.02178   0.00000   0.00136   0.00039
           Y8           0.01909  -0.01534   0.00000   0.00033   0.00177
           Z8           0.00000   0.00000   0.00520   0.00000   0.00000
           X9          -0.03031   0.14308   0.00000   0.00024   0.00143
           Y9           0.03294   0.07129   0.00000   0.00254  -0.00518
           Z9           0.00000   0.00000   0.01124   0.00000   0.00000
           X10         -0.00554  -0.00191   0.00000  -0.00033   0.00130
           Y10         -0.00080   0.00060   0.00000  -0.00021   0.00030
           Z10          0.00000   0.00000   0.00899   0.00000   0.00000
           X11         -0.03031  -0.14308   0.00000   0.00024  -0.00143
           Y11         -0.03294   0.07129   0.00000  -0.00254  -0.00518
           Z11          0.00000   0.00000   0.01124   0.00000   0.00000
           X12         -0.00554   0.00191   0.00000  -0.00033  -0.00130
           Y12          0.00080   0.00060   0.00000   0.00021   0.00030
           Z12          0.00000   0.00000   0.00899   0.00000   0.00000
                          Z2        X3        Y3        Z3        X4
           Z2           0.03208
           X3           0.00000   0.93516
           Y3           0.00000   0.00000   0.78449
           Z3          -0.00094   0.00000   0.00000   0.16893
           X4           0.00000  -0.43748   0.00000   0.00000   0.44789
           Y4           0.00000   0.00000  -0.06971   0.00000   0.00000
           Z4          -0.00128   0.00000   0.00000  -0.04744   0.00000
           X5           0.00000  -0.03032  -0.14308   0.00000   0.00024
           Y5           0.00000  -0.03294   0.07129   0.00000  -0.00254
           Z5           0.00520   0.00000   0.00000   0.01124   0.00000
           X6           0.00000  -0.00554   0.00191   0.00000  -0.00033
           Y6           0.00000   0.00080   0.00060   0.00000   0.00021
           Z6          -0.00529   0.00000   0.00000   0.00899   0.00000
           X7           0.00000  -0.03031   0.14308   0.00000   0.00024
           Y7           0.00000   0.03294   0.07129   0.00000   0.00254
           Z7           0.00520   0.00000   0.00000   0.01124   0.00000
           X8           0.00000  -0.00554  -0.00191   0.00000  -0.00033
           Y8           0.00000  -0.00080   0.00060   0.00000  -0.00021
           Z8          -0.00529   0.00000   0.00000   0.00899   0.00000
           X9           0.00000  -0.22770  -0.02940   0.00000  -0.00709
           Y9           0.00000  -0.17003  -0.34295   0.00000   0.00751
           Z9           0.00899   0.00000   0.00000  -0.07979   0.00000
           X10          0.00000   0.01294  -0.02178   0.00000   0.00136
           Y10          0.00000   0.01909  -0.01534   0.00000   0.00033
           Z10         -0.00012   0.00000   0.00000   0.00520   0.00000
           X11          0.00000  -0.22770   0.02940   0.00000  -0.00709
           Y11          0.00000   0.17003  -0.34295   0.00000  -0.00751
           Z11          0.00899   0.00000   0.00000  -0.07979   0.00000
           X12          0.00000   0.01294   0.02178   0.00000   0.00136
           Y12          0.00000  -0.01909  -0.01534   0.00000  -0.00033
           Z12         -0.00012   0.00000   0.00000   0.00520   0.00000
                          Y4        Z4        X5        Y5        Z5
           Y4           0.06715
           Z4           0.00000   0.03208
           X5          -0.00143   0.00000   0.82131
           Y5          -0.00518   0.00000   0.06531   0.89778
           Z5           0.00000   0.00899   0.00000   0.00000   0.16896
           X6          -0.00130   0.00000  -0.16164  -0.15924   0.00000
           Y6           0.00030   0.00000  -0.15921  -0.34567   0.00000
           Z6           0.00000  -0.00012   0.00000   0.00000  -0.04742
           X7           0.00143   0.00000   0.12212  -0.05507   0.00000
           Y7          -0.00518   0.00000   0.05507  -0.08105   0.00000
           Z7           0.00000   0.00899   0.00000   0.00000   0.01125
           X8           0.00130   0.00000  -0.00210  -0.00279   0.00000
           Y8           0.00030   0.00000  -0.00389  -0.00283   0.00000
           Z8           0.00000  -0.00012   0.00000   0.00000   0.00899
           X9          -0.03335   0.00000  -0.39983  -0.07030   0.00000
           Y9           0.00470   0.00000   0.07030  -0.17026   0.00000
           Z9           0.00000   0.00520   0.00000   0.00000  -0.07985
           X10          0.00039   0.00000  -0.00942   0.03198   0.00000
           Y10          0.00177   0.00000  -0.00886   0.00704   0.00000
           Z10          0.00000  -0.00529   0.00000   0.00000   0.00519
           X11          0.03335   0.00000  -0.10536   0.06202   0.00000
           Y11          0.00470   0.00000   0.06202  -0.03387   0.00000
           Z11          0.00000   0.00520   0.00000   0.00000  -0.01183
           X12         -0.00039   0.00000  -0.00021   0.00104   0.00000
           Y12          0.00177   0.00000   0.00104   0.00099   0.00000
           Z12          0.00000  -0.00529   0.00000   0.00000  -0.00094
                          X6        Y6        Z6        X7        Y7
           X6           0.16231
           Y6           0.16484   0.35284
           Z6           0.00000   0.00000   0.03207
           X7          -0.00210   0.00389   0.00000   0.82131
           Y7           0.00279  -0.00283   0.00000  -0.06531   0.89778
           Z7           0.00000   0.00000   0.00899   0.00000   0.00000
           X8           0.00061  -0.00076   0.00000  -0.16164   0.15924
           Y8           0.00076  -0.00064   0.00000   0.15921  -0.34567
           Z8           0.00000   0.00000  -0.00012   0.00000   0.00000
           X9          -0.00942   0.00886   0.00000  -0.10536  -0.06202
           Y9          -0.03198   0.00704   0.00000  -0.06202  -0.03387
           Z9           0.00000   0.00000   0.00519   0.00000   0.00000
           X10          0.00198  -0.00003   0.00000  -0.00021  -0.00104
           Y10          0.00003   0.00115   0.00000  -0.00104   0.00099
           Z10          0.00000   0.00000  -0.00529   0.00000   0.00000
           X11         -0.00021   0.00104   0.00000  -0.39983   0.07030
           Y11          0.00104   0.00099   0.00000  -0.07030  -0.17026
           Z11          0.00000   0.00000  -0.00094   0.00000   0.00000
           X12          0.00005  -0.00023   0.00000  -0.00942  -0.03198
           Y12         -0.00023  -0.00021   0.00000   0.00886   0.00704
           Z12          0.00000   0.00000  -0.00128   0.00000   0.00000
                          Z7        X8        Y8        Z8        X9
           Z7           0.16896
           X8           0.00000   0.16231
           Y8           0.00000  -0.16484   0.35284
           Z8          -0.04742   0.00000   0.00000   0.03207
           X9           0.00000  -0.00021  -0.00104   0.00000   0.82131
           Y9           0.00000  -0.00104   0.00099   0.00000  -0.06531
           Z9          -0.01183   0.00000   0.00000  -0.00094   0.00000
           X10          0.00000   0.00005   0.00023   0.00000  -0.16164
           Y10          0.00000   0.00023  -0.00021   0.00000   0.15921
           Z10         -0.00094   0.00000   0.00000  -0.00128   0.00000
           X11          0.00000  -0.00942  -0.00886   0.00000   0.12212
           Y11          0.00000   0.03198   0.00704   0.00000  -0.05507
           Z11         -0.07985   0.00000   0.00000   0.00519   0.00000
           X12          0.00000   0.00198   0.00003   0.00000  -0.00210
           Y12          0.00000  -0.00003   0.00115   0.00000   0.00389
           Z12          0.00519   0.00000   0.00000  -0.00529   0.00000
                          Y9        Z9        X10       Y10       Z10
           Y9           0.89778
           Z9           0.00000   0.16896
           X10          0.15924   0.00000   0.16231
           Y10         -0.34567   0.00000  -0.16484   0.35284
           Z10          0.00000  -0.04742   0.00000   0.00000   0.03207
           X11          0.05507   0.00000  -0.00210  -0.00389   0.00000
           Y11         -0.08105   0.00000  -0.00279  -0.00283   0.00000
           Z11          0.00000   0.01125   0.00000   0.00000   0.00899
           X12          0.00279   0.00000   0.00061   0.00076   0.00000
           Y12         -0.00283   0.00000  -0.00076  -0.00064   0.00000
           Z12          0.00000   0.00899   0.00000   0.00000  -0.00012
                          X11       Y11       Z11       X12       Y12
           X11          0.82131
           Y11          0.06531   0.89778
           Z11          0.00000   0.00000   0.16896
           X12         -0.16164  -0.15924   0.00000   0.16231
           Y12         -0.15921  -0.34567   0.00000   0.16484   0.35284
           Z12          0.00000   0.00000  -0.04742   0.00000   0.00000
                          Z12
           Z12          0.03207
 ITU=  0
 OrtVCM:  Ph=1 IPass= 1 DotMx1= 0.00D+00
 OrtVCM:  IS=    1 I=    1 IndO=    1 Dot= 1.00D+00 DotN= 1.00D+00 ElMax1= 3.78D-01 ElMax1N= 3.78D-01
 OrtVCM:  Ph=2 NNew=    0 IAdd=    2 IPass= 1 DotMx2= 0.00D+00
 OrtVCM:  IS=    1 I=    2 IndO=    2 Dot= 1.00D+00 DotN= 1.00D+00 ElMax1= 3.78D-01 ElMax1N= 3.78D-01
 OrtVCM:  Ph=2 NNew=    0 IAdd=    3 IPass= 1 DotMx2= 0.00D+00
 OrtVCM:  IS=    1 I=    3 IndO=    3 Dot= 1.00D+00 DotN= 1.00D+00 ElMax1= 3.78D-01 ElMax1N= 3.78D-01
 OrtVCM:  Ph=2 NNew=    0 IAdd=    4 IPass= 1 DotMx2= 0.00D+00
 OrtVCM:  IS=    1 I=    4 IndO=    4 Dot= 1.00D+00 DotN= 1.00D+00 ElMax1= 4.04D-01 ElMax1N= 4.04D-01
 OrtVCM:  Ph=2 NNew=    0 IAdd=    5 IPass= 1 DotMx2= 0.00D+00
 OrtVCM:  IS=    1 I=    5 IndO=    5 Dot= 1.00D+00 DotN= 1.00D+00 ElMax1= 4.67D-01 ElMax1N= 4.67D-01
 OrtVCM:  Ph=2 NNew=    0 IAdd=    6 IPass= 1 DotMx2= 1.39D-17
 OrtVCM:  IS=    1 I=    6 IndO=    6 Dot= 1.00D+00 DotN= 1.00D+00 ElMax1= 3.30D-01 ElMax1N= 3.30D-01
 OrtVCM:  Ph=1 IPass= 1 DotMx1= 4.67D-01
 OrtVCM:  Ph=1 IPass= 2 DotMx1= 2.57D-16
 OrtVCM:  IS=    1 I=    1 IndO=    7 Dot= 8.57D-01 DotN= 8.57D-01 ElMax1= 8.57D-01 ElMax1N= 8.57D-01
 OrtVCM:  Ph=2 NNew=    0 IAdd=    2 IPass= 1 DotMx2= 3.47D-18
 OrtVCM:  IS=    1 I=    2 IndO=    8 Dot= 7.48D-01 DotN= 7.48D-01 ElMax1= 7.48D-01 ElMax1N= 7.48D-01
 OrtVCM:  Ph=2 NNew=    0 IAdd=    3 IPass= 1 DotMx2= 0.00D+00
 OrtVCM:  IS=    1 I=    3 IndO=    9 Dot= 6.39D-01 DotN= 6.39D-01 ElMax1= 6.39D-01 ElMax1N= 6.39D-01
 OrtVCM:  Ph=2 NNew=    0 IAdd=    4 IPass= 1 DotMx2= 6.30D-02
 OrtVCM:  Ph=2 NNew=    0 IAdd=    4 IPass= 2 DotMx2= 4.16D-17
 OrtVCM:  IS=    1 I=    4 IndO=   10 Dot= 9.72D-01 DotN= 9.72D-01 ElMax1= 9.72D-01 ElMax1N= 9.72D-01
 OrtVCM:  Ph=2 NNew=    0 IAdd=    5 IPass= 1 DotMx2= 1.59D-01
 OrtVCM:  Ph=2 NNew=    0 IAdd=    5 IPass= 2 DotMx2= 2.78D-17
 OrtVCM:  IS=    1 I=    5 IndO=   11 Dot= 8.93D-01 DotN= 8.93D-01 ElMax1= 8.93D-01 ElMax1N= 8.93D-01
 OrtVCM:  Ph=2 NNew=    0 IAdd=    6 IPass= 1 DotMx2= 2.71D-01
 OrtVCM:  Ph=2 NNew=    0 IAdd=    6 IPass= 2 DotMx2= 2.78D-17
 OrtVCM:  IS=    1 I=    6 IndO=   12 Dot= 7.87D-01 DotN= 7.87D-01 ElMax1= 7.87D-01 ElMax1N= 7.87D-01
 OrtVCM:  Ph=2 NNew=    0 IAdd=    7 IPass= 1 DotMx2= 1.54D-01
 OrtVCM:  Ph=2 NNew=    0 IAdd=    7 IPass= 2 DotMx2= 2.78D-17
 OrtVCM:  IS=    1 I=    7 IndO=   13 Dot= 8.29D-01 DotN= 8.29D-01 ElMax1= 8.29D-01 ElMax1N= 8.29D-01
 OrtVCM:  Ph=2 NNew=    0 IAdd=    8 IPass= 1 DotMx2= 3.92D-02
 OrtVCM:  Ph=2 NNew=    0 IAdd=    8 IPass= 2 DotMx2= 6.94D-18
 OrtVCM:  IS=    1 I=    8 IndO=   14 Dot= 7.46D-01 DotN= 7.46D-01 ElMax1= 7.46D-01 ElMax1N= 7.46D-01
 OrtVCM:  Ph=2 NNew=    0 IAdd=    9 IPass= 1 DotMx2= 1.42D-01
 OrtVCM:  Ph=2 NNew=    0 IAdd=    9 IPass= 2 DotMx2= 5.90D-17
 OrtVCM:  IS=    1 I=    9 IndO=   15 Dot= 6.10D-01 DotN= 6.10D-01 ElMax1= 6.10D-01 ElMax1N= 6.10D-01
 OrtVCM:  Ph=2 NNew=    0 IAdd=   10 IPass= 1 DotMx2= 7.69D-02
 OrtVCM:  Ph=2 NNew=    0 IAdd=   10 IPass= 2 DotMx2= 2.78D-17
 OrtVCM:  IS=    1 I=   10 IndO=   16 Dot= 9.66D-01 DotN= 9.66D-01 ElMax1= 9.66D-01 ElMax1N= 9.66D-01
 OrtVCM:  Ph=2 NNew=    0 IAdd=   11 IPass= 1 DotMx2= 1.59D-01
 OrtVCM:  Ph=2 NNew=    0 IAdd=   11 IPass= 2 DotMx2= 6.25D-17
 OrtVCM:  IS=    1 I=   11 IndO=   17 Dot= 8.91D-01 DotN= 8.91D-01 ElMax1= 8.91D-01 ElMax1N= 8.91D-01
 OrtVCM:  Ph=2 NNew=    0 IAdd=   12 IPass= 1 DotMx2= 3.18D-01
 OrtVCM:  Ph=2 NNew=    0 IAdd=   12 IPass= 2 DotMx2= 6.25D-17
 OrtVCM:  IS=    1 I=   12 IndO=   18 Dot= 7.24D-01 DotN= 7.24D-01 ElMax1= 7.24D-01 ElMax1N= 7.24D-01
 OrtVCM:  Ph=2 NNew=    0 IAdd=   13 IPass= 1 DotMx2= 1.88D-01
 OrtVCM:  Ph=2 NNew=    0 IAdd=   13 IPass= 2 DotMx2= 6.94D-17
 OrtVCM:  IS=    1 I=   13 IndO=   19 Dot= 6.63D-01 DotN= 6.63D-01 ElMax1= 6.63D-01 ElMax1N= 6.63D-01
 OrtVCM:  Ph=2 NNew=    0 IAdd=   14 IPass= 1 DotMx2= 2.28D-01
 OrtVCM:  Ph=2 NNew=    0 IAdd=   14 IPass= 2 DotMx2= 4.86D-17
 OrtVCM:  IS=    1 I=   14 IndO=   20 Dot= 7.37D-01 DotN= 7.37D-01 ElMax1= 7.37D-01 ElMax1N= 7.37D-01
 OrtVCM:  Ph=2 NNew=    0 IAdd=   15 IPass= 1 DotMx2= 3.15D-01
 OrtVCM:  Ph=2 NNew=    0 IAdd=   15 IPass= 2 DotMx2= 7.63D-17
 OrtVCM:  IS=    1 I=   15 IndO=   21 Dot= 4.59D-01 DotN= 4.59D-01 ElMax1= 4.59D-01 ElMax1N= 4.59D-01
 OrtVCM:  Ph=2 NNew=    0 IAdd=   16 IPass= 1 DotMx2= 2.17D-01
 OrtVCM:  Ph=2 NNew=    0 IAdd=   16 IPass= 2 DotMx2= 3.47D-17
 OrtVCM:  IS=    1 I=   16 IndO=   22 Dot= 8.46D-01 DotN= 8.46D-01 ElMax1= 8.46D-01 ElMax1N= 8.46D-01
 OrtVCM:  Ph=2 NNew=    0 IAdd=   17 IPass= 1 DotMx2= 1.43D-01
 OrtVCM:  Ph=2 NNew=    0 IAdd=   17 IPass= 2 DotMx2= 6.94D-17
 OrtVCM:  IS=    1 I=   17 IndO=   23 Dot= 9.14D-01 DotN= 9.14D-01 ElMax1= 9.14D-01 ElMax1N= 9.14D-01
 OrtVCM:  Ph=2 NNew=    0 IAdd=   18 IPass= 1 DotMx2= 4.80D-01
 OrtVCM:  Ph=2 NNew=    0 IAdd=   18 IPass= 2 DotMx2= 8.33D-17
 OrtVCM:  IS=    1 I=   18 IndO=   24 Dot= 5.60D-01 DotN= 5.60D-01 ElMax1= 5.60D-01 ElMax1N= 5.60D-01
 OrtVCM:  Ph=2 NNew=    0 IAdd=   19 IPass= 1 DotMx2= 1.88D-01
 OrtVCM:  Ph=2 NNew=    0 IAdd=   19 IPass= 2 DotMx2= 4.16D-17
 OrtVCM:  IS=    1 I=   19 IndO=   25 Dot= 6.42D-01 DotN= 6.42D-01 ElMax1= 6.42D-01 ElMax1N= 6.42D-01
 OrtVCM:  Ph=2 NNew=    0 IAdd=   20 IPass= 1 DotMx2= 3.06D-01
 OrtVCM:  Ph=2 NNew=    0 IAdd=   20 IPass= 2 DotMx2= 4.86D-17
 OrtVCM:  IS=    1 I=   20 IndO=   26 Dot= 5.87D-01 DotN= 5.87D-01 ElMax1= 5.87D-01 ElMax1N= 5.87D-01
 OrtVCM:  Ph=2 NNew=    0 IAdd=   21 IPass= 1 DotMx2= 3.20D-01
 OrtVCM:  Ph=2 NNew=    0 IAdd=   21 IPass= 2 DotMx2= 6.94D-17
 OrtVCM:  IS=    1 I=   21 IndO=   27 Dot= 2.57D-01 DotN= 2.57D-01 ElMax1= 4.08D-01 ElMax1N= 4.08D-01
 OrtVCM:  Ph=2 NNew=    0 IAdd=   22 IPass= 1 DotMx2= 2.28D-01
 OrtVCM:  Ph=2 NNew=    0 IAdd=   22 IPass= 2 DotMx2= 4.16D-17
 OrtVCM:  IS=    1 I=   22 IndO=   28 Dot= 8.19D-01 DotN= 8.19D-01 ElMax1= 8.19D-01 ElMax1N= 8.19D-01
 OrtVCM:  Ph=2 NNew=    0 IAdd=   23 IPass= 1 DotMx2= 2.59D-01
 OrtVCM:  Ph=2 NNew=    0 IAdd=   23 IPass= 2 DotMx2= 6.59D-17
 OrtVCM:  IS=    1 I=   23 IndO=   29 Dot= 8.19D-01 DotN= 8.19D-01 ElMax1= 8.19D-01 ElMax1N= 8.19D-01
 OrtVCM:  Ph=2 NNew=    0 IAdd=   24 IPass= 1 DotMx2= 8.05D-01
 OrtVCM:  Ph=2 NNew=    0 IAdd=   24 IPass= 2 DotMx2= 9.71D-17
 OrtVCM:  IS=    1 I=   24 IndO=   30 Dot= 1.09D-01 DotN= 1.09D-01 ElMax1= 2.12D-01 ElMax1N= 2.12D-01
 OrtVCM:  Ph=2 NNew=    0 IAdd=   25 IPass= 1 DotMx2= 4.14D-01
 OrtVCM:  Ph=2 NNew=    0 IAdd=   25 IPass= 2 DotMx2= 1.67D-16
 OrtVCM:  IS=    1 I=   25 IndO=   31 Dot= 2.51D-01 DotN= 2.51D-01 ElMax1= 4.08D-01 ElMax1N= 4.08D-01
 OrtVCM:  Ph=2 NNew=    0 IAdd=   26 IPass= 1 DotMx2= 2.97D-01
 OrtVCM:  Ph=2 NNew=    0 IAdd=   26 IPass= 2 DotMx2= 4.86D-17
 OrtVCM:  IS=    1 I=   26 IndO=   32 Dot= 5.68D-01 DotN= 5.68D-01 ElMax1= 5.68D-01 ElMax1N= 5.68D-01
 OrtVCM:  Ph=2 NNew=    0 IAdd=   27 IPass= 1 DotMx2= 3.20D-01
 OrtVCM:  Ph=2 NNew=    0 IAdd=   27 IPass= 2 DotMx2= 1.11D-16
 OrtVCM:  IS=    1 I=   27 IndO=   33 Dot= 1.73D-01 DotN= 1.73D-01 ElMax1= 2.38D-01 ElMax1N= 2.38D-01
 OrtVCM:  Ph=2 NNew=    0 IAdd=   28 IPass= 1 DotMx2= 8.16D-01
 OrtVCM:  Ph=2 NNew=    0 IAdd=   28 IPass= 2 DotMx2= 1.18D-16
 OrtVCM:  IS=    1 I=   28 IndO=   34 Dot= 8.92D-02 DotN= 8.92D-02 ElMax1= 1.96D-01 ElMax1N= 1.96D-01
 OrtVCM:  Ph=2 NNew=    0 IAdd=   29 IPass= 1 DotMx2= 3.52D-01
 OrtVCM:  Ph=2 NNew=    0 IAdd=   29 IPass= 2 DotMx2= 6.94D-17
 OrtVCM:  IS=    1 I=   29 IndO=   35 Dot= 7.37D-01 DotN= 7.37D-01 ElMax1= 7.37D-01 ElMax1N= 7.37D-01
 OrtVCM:  Ph=2 NNew=    0 IAdd=   30 IPass= 1 DotMx2= 6.42D-01
 OrtVCM:  Ph=2 NNew=    0 IAdd=   30 IPass= 2 DotMx2= 1.44D-16
 OrtVCM:  IS=    1 I=   30 IndO=    0 Dot= 6.69D-33 DotN= 6.69D-33 ElMax1= 4.80D-17 ElMax1N= 4.80D-17
 SchOr2:  IPass= 1 Test2A= 1.00D-01 IOff=     0 NDo=    30 NNew=    29
 OrtVCM:  Ph=1 IPass= 1 DotMx1= 4.47D-01
 OrtVCM:  Ph=1 IPass= 2 DotMx1= 3.75D-16
 OrtVCM:  IS=    1 I=    1 IndO=   36 Dot= 3.57D-02 DotN= 3.57D-02 ElMax1= 1.52D-01 ElMax1N= 1.52D-01
 SchOr2:  IPass= 1 Test2A= 1.00D-01 IOff=    30 NDo=     1 NNew=     1
 Eigenvectors of the second derivative matrix:
                           1         2         3         4         5
     Eigenvalues --     0.01740   0.01742   0.03398   0.03902   0.05819
   1         X1         0.00000   0.00000   0.00000   0.00000  -0.12690
   2         Y1         0.00000   0.00000   0.00000   0.00000   0.00000
   3         Z1         0.16617   0.00000  -0.15425  -0.04879   0.00000
   4         X2         0.00000   0.00000   0.00000   0.00000  -0.14509
   5         Y2         0.00000   0.00000   0.00000   0.00000   0.00000
   6         Z2         0.55288  -0.00001   0.37802  -0.40525   0.00000
   7         X3         0.00000   0.00000   0.00000   0.00000   0.12690
   8         Y3         0.00000   0.00000   0.00000   0.00000   0.00000
   9         Z3         0.16617   0.00000  -0.15425   0.04879   0.00000
  10         X4         0.00000   0.00000   0.00000   0.00000   0.14509
  11         Y4         0.00000   0.00000   0.00000   0.00000   0.00000
  12         Z4         0.55288  -0.00001   0.37802   0.40525   0.00000
  13         X5         0.00000   0.00000   0.00000   0.00000   0.00903
  14         Y5         0.00000   0.00000   0.00000   0.00000   0.06810
  15         Z5        -0.08306  -0.14378  -0.15433   0.04863   0.00000
  16         X6         0.00000   0.00000   0.00000   0.00000   0.44386
  17         Y6         0.00000   0.00000   0.00000   0.00000  -0.17233
  18         Z6        -0.27652  -0.47887   0.37794   0.40538   0.00000
  19         X7         0.00000   0.00000   0.00000   0.00000   0.00903
  20         Y7         0.00000   0.00000   0.00000   0.00000  -0.06810
  21         Z7        -0.08305   0.14378  -0.15433   0.04863   0.00000
  22         X8         0.00000   0.00000   0.00000   0.00000   0.44385
  23         Y8         0.00000   0.00000   0.00000   0.00000   0.17232
  24         Z8        -0.27649   0.47889   0.37794   0.40538   0.00000
  25         X9         0.00000   0.00000   0.00000   0.00000  -0.00903
  26         Y9         0.00000   0.00000   0.00000   0.00000   0.06810
  27         Z9        -0.08305   0.14378  -0.15433  -0.04863   0.00000
  28         X10        0.00000   0.00000   0.00000   0.00000  -0.44385
  29         Y10        0.00000   0.00000   0.00000   0.00000  -0.17232
  30         Z10       -0.27649   0.47889   0.37794  -0.40538   0.00000
  31         X11        0.00000   0.00000   0.00000   0.00000  -0.00903
  32         Y11        0.00000   0.00000   0.00000   0.00000  -0.06810
  33         Z11       -0.08306  -0.14378  -0.15433  -0.04863   0.00000
  34         X12        0.00000   0.00000   0.00000   0.00000  -0.44386
  35         Y12        0.00000   0.00000   0.00000   0.00000   0.17233
  36         Z12       -0.27652  -0.47887   0.37794  -0.40538   0.00000
                           6         7         8         9        10
     Eigenvalues --     0.05820   0.06202   0.07311   0.07316   0.09734
   1         X1         0.00000   0.00000   0.00000  -0.12524   0.00000
   2         Y1        -0.03028   0.00917  -0.03060   0.00000   0.00000
   3         Z1         0.00000   0.00000   0.00000   0.00000  -0.00004
   4         X2         0.00000   0.00000   0.00000  -0.15858   0.00000
   5         Y2         0.54349   0.40829   0.53990   0.00000   0.00000
   6         Z2         0.00000   0.00000   0.00000   0.00000   0.00006
   7         X3         0.00000   0.00000   0.00000  -0.12524   0.00000
   8         Y3         0.03028   0.00917  -0.03060   0.00000   0.00000
   9         Z3         0.00000   0.00000   0.00000   0.00000   0.00004
  10         X4         0.00000   0.00000   0.00000  -0.15858   0.00000
  11         Y4        -0.54349   0.40829   0.53990   0.00000   0.00000
  12         Z4         0.00000   0.00000   0.00000   0.00000  -0.00006
  13         X5        -0.06799   0.00799  -0.04105  -0.05421   0.00000
  14         Y5        -0.08751  -0.00465  -0.10149  -0.04093   0.00000
  15         Z5         0.00000   0.00000   0.00000   0.00000   0.29427
  16         X6         0.17257   0.35342  -0.30256   0.36546   0.00000
  17         Y6        -0.24451  -0.20399   0.01612  -0.30234   0.00000
  18         Z6         0.00000   0.00000   0.00000   0.00000  -0.40419
  19         X7         0.06799  -0.00799   0.04105  -0.05421   0.00000
  20         Y7        -0.08751  -0.00465  -0.10149   0.04093   0.00000
  21         Z7         0.00000   0.00000   0.00000   0.00000  -0.29431
  22         X8        -0.17258  -0.35342   0.30256   0.36546   0.00000
  23         Y8        -0.24451  -0.20399   0.01612   0.30234   0.00000
  24         Z8         0.00000   0.00000   0.00000   0.00000   0.40425
  25         X9        -0.06799  -0.00799   0.04105  -0.05421   0.00000
  26         Y9         0.08751  -0.00465  -0.10149   0.04093   0.00000
  27         Z9         0.00000   0.00000   0.00000   0.00000   0.29431
  28         X10        0.17258  -0.35342   0.30256   0.36546   0.00000
  29         Y10        0.24451  -0.20399   0.01612   0.30234   0.00000
  30         Z10        0.00000   0.00000   0.00000   0.00000  -0.40425
  31         X11        0.06799   0.00799  -0.04105  -0.05421   0.00000
  32         Y11        0.08751  -0.00465  -0.10149  -0.04093   0.00000
  33         Z11        0.00000   0.00000   0.00000   0.00000  -0.29427
  34         X12       -0.17257   0.35342  -0.30256   0.36546   0.00000
  35         Y12        0.24451  -0.20399   0.01612  -0.30234   0.00000
  36         Z12        0.00000   0.00000   0.00000   0.00000   0.40419
                          11        12        13        14        15
     Eigenvalues --     0.09736   0.11626   0.11627   0.21233   0.21776
   1         X1         0.00000   0.32004   0.00000  -0.18833   0.19842
   2         Y1         0.00000   0.00000   0.13918   0.00000   0.00000
   3         Z1        -0.33982   0.00000   0.00000   0.00000   0.00000
   4         X2         0.00000   0.41713   0.00000  -0.36211   0.35671
   5         Y2         0.00000   0.00000   0.19366   0.00000   0.00000
   6         Z2         0.46684   0.00000   0.00000   0.00000   0.00000
   7         X3         0.00000  -0.32004   0.00000   0.18833   0.19841
   8         Y3         0.00000   0.00000  -0.13918   0.00000   0.00000
   9         Z3         0.33982   0.00000   0.00000   0.00000   0.00000
  10         X4         0.00000  -0.41713   0.00000   0.36211   0.35671
  11         Y4         0.00000   0.00000  -0.19366   0.00000   0.00000
  12         Z4        -0.46684   0.00000   0.00000   0.00000   0.00000
  13         X5         0.00000   0.02444   0.19894  -0.09427  -0.09924
  14         Y5         0.00000  -0.19881   0.20520  -0.16315  -0.17188
  15         Z5        -0.16995   0.00000   0.00000   0.00000   0.00000
  16         X6         0.00000   0.04124   0.26443  -0.18098  -0.17827
  17         Y6         0.00000  -0.26450   0.26449  -0.31377  -0.30907
  18         Z6         0.23333   0.00000   0.00000   0.00000   0.00000
  19         X7         0.00000   0.02444  -0.19894  -0.09427  -0.09924
  20         Y7         0.00000   0.19881   0.20519   0.16315   0.17188
  21         Z7        -0.16988   0.00000   0.00000   0.00000   0.00000
  22         X8         0.00000   0.04124  -0.26443  -0.18098  -0.17827
  23         Y8         0.00000   0.26451   0.26449   0.31377   0.30907
  24         Z8         0.23323   0.00000   0.00000   0.00000   0.00000
  25         X9         0.00000  -0.02444   0.19894   0.09427  -0.09924
  26         Y9         0.00000  -0.19881  -0.20519  -0.16315   0.17188
  27         Z9         0.16988   0.00000   0.00000   0.00000   0.00000
  28         X10        0.00000  -0.04124   0.26443   0.18098  -0.17827
  29         Y10        0.00000  -0.26451  -0.26449  -0.31376   0.30907
  30         Z10       -0.23323   0.00000   0.00000   0.00000   0.00000
  31         X11        0.00000  -0.02444  -0.19894   0.09427  -0.09924
  32         Y11        0.00000   0.19881  -0.20520   0.16315  -0.17188
  33         Z11        0.16995   0.00000   0.00000   0.00000   0.00000
  34         X12        0.00000  -0.04124  -0.26443   0.18098  -0.17827
  35         Y12        0.00000   0.26450  -0.26449   0.31376  -0.30907
  36         Z12       -0.23333   0.00000   0.00000   0.00000   0.00000
                          16        17        18        19        20
     Eigenvalues --     0.23090   0.24444   0.24451   0.36756   0.47809
   1         X1         0.00000   0.00000   0.00000   0.00000   0.02548
   2         Y1        -0.24026   0.00000   0.00000   0.00000  -0.00002
   3         Z1         0.00000   0.55294  -0.00002   0.40535   0.00000
   4         X2         0.00000   0.00000   0.00000   0.00000   0.48715
   5         Y2         0.32998   0.00000   0.00000   0.00000   0.00001
   6         Z2         0.00000  -0.16617   0.00001  -0.04866   0.00000
   7         X3         0.00000   0.00000   0.00000   0.00000   0.02548
   8         Y3         0.24026   0.00000   0.00000   0.00000  -0.00002
   9         Z3         0.00000   0.55294  -0.00002  -0.40535   0.00000
  10         X4         0.00000   0.00000   0.00000   0.00000   0.48715
  11         Y4        -0.32998   0.00000   0.00000   0.00000   0.00001
  12         Z4         0.00000  -0.16617   0.00001   0.04866   0.00000
  13         X5         0.20813   0.00000   0.00000   0.00000  -0.20264
  14         Y5        -0.12011   0.00000   0.00000   0.00000   0.13166
  15         Z5         0.00000  -0.27643   0.47889  -0.40533   0.00000
  16         X6        -0.28593   0.00000   0.00000   0.00000   0.22161
  17         Y6         0.16491   0.00000   0.00000   0.00000   0.15336
  18         Z6         0.00000   0.08305  -0.14379   0.04869   0.00000
  19         X7        -0.20813   0.00000   0.00000   0.00000  -0.20266
  20         Y7        -0.12011   0.00000   0.00000   0.00000  -0.13167
  21         Z7         0.00000  -0.27647  -0.47887  -0.40533   0.00000
  22         X8         0.28593   0.00000   0.00000   0.00000   0.22159
  23         Y8         0.16491   0.00000   0.00000   0.00000  -0.15331
  24         Z8         0.00000   0.08306   0.14378   0.04869   0.00000
  25         X9         0.20813   0.00000   0.00000   0.00000  -0.20266
  26         Y9         0.12011   0.00000   0.00000   0.00000  -0.13167
  27         Z9         0.00000  -0.27647  -0.47887   0.40533   0.00000
  28         X10       -0.28593   0.00000   0.00000   0.00000   0.22159
  29         Y10       -0.16491   0.00000   0.00000   0.00000  -0.15331
  30         Z10        0.00000   0.08306   0.14378  -0.04869   0.00000
  31         X11       -0.20813   0.00000   0.00000   0.00000  -0.20264
  32         Y11        0.12011   0.00000   0.00000   0.00000   0.13166
  33         Z11        0.00000  -0.27643   0.47889   0.40533   0.00000
  34         X12        0.28593   0.00000   0.00000   0.00000   0.22161
  35         Y12       -0.16491   0.00000   0.00000   0.00000   0.15336
  36         Z12        0.00000   0.08305  -0.14379  -0.04869   0.00000
                          21        22        23        24        25
     Eigenvalues --     0.47816   0.71762   0.84056   0.84064   1.18686
   1         X1         0.00000   0.00000  -0.31546   0.00001   0.35714
   2         Y1        -0.27837   0.40804   0.00001   0.33183   0.00000
   3         Z1         0.00000   0.00000   0.00000   0.00000   0.00000
   4         X2        -0.00003   0.00000   0.35197  -0.00001  -0.19867
   5         Y2         0.13310  -0.00924   0.00000  -0.00185   0.00000
   6         Z2         0.00000   0.00000   0.00000   0.00000   0.00000
   7         X3         0.00000   0.00000   0.31546  -0.00001   0.35714
   8         Y3        -0.27837   0.40804  -0.00001  -0.33183   0.00000
   9         Z3         0.00000   0.00000   0.00000   0.00000   0.00000
  10         X4        -0.00003   0.00000  -0.35197   0.00001  -0.19867
  11         Y4         0.13310  -0.00924   0.00000   0.00185   0.00000
  12         Z4         0.00000   0.00000   0.00000   0.00000   0.00000
  13         X5         0.13211   0.35368  -0.17018   0.28016  -0.17850
  14         Y5        -0.05074  -0.20379   0.28007   0.15360  -0.30869
  15         Z5         0.00000   0.00000   0.00000   0.00000   0.00000
  16         X6         0.15315  -0.00829  -0.08650  -0.15305   0.09915
  17         Y6         0.39863   0.00406  -0.15304  -0.26350   0.17178
  18         Z6         0.00000   0.00000   0.00000   0.00000   0.00000
  19         X7        -0.13208  -0.35368  -0.17020  -0.28015  -0.17850
  20         Y7        -0.05072  -0.20379  -0.28006   0.15362   0.30869
  21         Z7         0.00000   0.00000   0.00000   0.00000   0.00000
  22         X8        -0.15318   0.00829  -0.08648   0.15306   0.09915
  23         Y8         0.39865   0.00406   0.15302  -0.26351  -0.17178
  24         Z8         0.00000   0.00000   0.00000   0.00000   0.00000
  25         X9        -0.13208  -0.35368   0.17020   0.28015  -0.17850
  26         Y9        -0.05072  -0.20379   0.28006  -0.15362   0.30869
  27         Z9         0.00000   0.00000   0.00000   0.00000   0.00000
  28         X10       -0.15318   0.00829   0.08648  -0.15306   0.09915
  29         Y10        0.39865   0.00406  -0.15302   0.26351  -0.17178
  30         Z10        0.00000   0.00000   0.00000   0.00000   0.00000
  31         X11        0.13211   0.35368   0.17018  -0.28016  -0.17850
  32         Y11       -0.05074  -0.20379  -0.28007  -0.15360  -0.30869
  33         Z11        0.00000   0.00000   0.00000   0.00000   0.00000
  34         X12        0.15315  -0.00829   0.08650   0.15305   0.09915
  35         Y12        0.39863   0.00406   0.15304   0.26350   0.17178
  36         Z12        0.00000   0.00000   0.00000   0.00000   0.00000
                          26        27        28        29        30
     Eigenvalues --     1.32391   1.42062   1.42114   1.63698   1.63849
   1         X1         0.36149   0.00000   0.41700  -0.34030   0.00000
   2         Y1         0.00000   0.33487   0.00000   0.00000   0.45050
   3         Z1         0.00000   0.00000   0.00000   0.00000   0.00000
   4         X2        -0.18802   0.00000  -0.21683   0.12079   0.00000
   5         Y2         0.00000  -0.01410   0.00000   0.00000  -0.02200
   6         Z2         0.00000   0.00000   0.00000   0.00000   0.00000
   7         X3        -0.36149   0.00000   0.41700   0.34030   0.00000
   8         Y3         0.00000   0.33487   0.00000   0.00000  -0.45050
   9         Z3         0.00000   0.00000   0.00000   0.00000   0.00000
  10         X4         0.18802   0.00000  -0.21683  -0.12079   0.00000
  11         Y4         0.00000  -0.01410   0.00000   0.00000   0.02200
  12         Z4         0.00000   0.00000   0.00000   0.00000   0.00000
  13         X5         0.18161  -0.32513  -0.14638   0.42248   0.04800
  14         Y5         0.31375  -0.22960   0.32582  -0.04841  -0.36739
  15         Z5         0.00000   0.00000   0.00000   0.00000   0.00000
  16         X6        -0.09429   0.10010  -0.04374  -0.04656   0.04259
  17         Y6        -0.16331   0.15933  -0.10024  -0.04247   0.09586
  18         Z6         0.00000   0.00000   0.00000   0.00000   0.00000
  19         X7         0.18161   0.32513  -0.14638   0.42248  -0.04801
  20         Y7        -0.31375  -0.22960  -0.32582   0.04841  -0.36739
  21         Z7         0.00000   0.00000   0.00000   0.00000   0.00000
  22         X8        -0.09429  -0.10010  -0.04374  -0.04656  -0.04259
  23         Y8         0.16331   0.15933   0.10024   0.04247   0.09586
  24         Z8         0.00000   0.00000   0.00000   0.00000   0.00000
  25         X9        -0.18161   0.32513  -0.14638  -0.42248   0.04800
  26         Y9         0.31375  -0.22960  -0.32582  -0.04841   0.36739
  27         Z9         0.00000   0.00000   0.00000   0.00000   0.00000
  28         X10        0.09429  -0.10010  -0.04374   0.04656   0.04259
  29         Y10       -0.16331   0.15933   0.10024  -0.04247  -0.09586
  30         Z10        0.00000   0.00000   0.00000   0.00000   0.00000
  31         X11       -0.18161  -0.32513  -0.14638  -0.42248  -0.04800
  32         Y11       -0.31375  -0.22960   0.32582   0.04841   0.36739
  33         Z11        0.00000   0.00000   0.00000   0.00000   0.00000
  34         X12        0.09429   0.10010  -0.04374   0.04656  -0.04259
  35         Y12        0.16331   0.15933  -0.10024   0.04247  -0.09586
  36         Z12        0.00000   0.00000   0.00000   0.00000   0.00000
 Iter=   1 RLamda= 0.00000000D+00 Sum=-2.12120844D-07.
 Iter=   2 RLamda=-2.12120844D-07 Sum=-2.12120557D-07.
 RFO step:  Lambda=-2.12120844D-07 EMin= 1.74011878D-02
 Linear search not attempted -- first point.
 TrRot=  0.000000  0.000000  0.000000  0.000000  0.000000  0.000000
 Variable       Old X    -DE/DX   Delta X   Delta X   Delta X     New X
                                 (Linear)    (Quad)   (Total)
    X1        2.63064   0.00003   0.00000   0.00002   0.00002   2.63066
    Y1        0.00000   0.00000   0.00000   0.00000   0.00000   0.00000
    Z1        0.00000   0.00000   0.00000   0.00000   0.00000   0.00000
    X2        4.69141   0.00001   0.00000   0.00004   0.00004   4.69145
    Y2        0.00000   0.00000   0.00000   0.00000   0.00000   0.00000
    Z2        0.00000   0.00000   0.00000   0.00000   0.00000   0.00000
    X3       -2.63064  -0.00003   0.00000  -0.00002  -0.00002  -2.63066
    Y3        0.00000   0.00000   0.00000   0.00000   0.00000   0.00000
    Z3        0.00000   0.00000   0.00000   0.00000   0.00000   0.00000
    X4       -4.69141  -0.00001   0.00000  -0.00004  -0.00004  -4.69145
    Y4        0.00000   0.00000   0.00000   0.00000   0.00000   0.00000
    Z4        0.00000   0.00000   0.00000   0.00000   0.00000   0.00000
    X5        1.31549  -0.00022   0.00000  -0.00018  -0.00018   1.31531
    Y5        2.27813   0.00001   0.00000  -0.00003  -0.00003   2.27811
    Z5        0.00000   0.00000   0.00000   0.00000   0.00000   0.00000
    X6        2.34612  -0.00001   0.00000  -0.00051  -0.00051   2.34561
    Y6        4.06265   0.00003   0.00000   0.00021   0.00021   4.06287
    Z6        0.00000   0.00000   0.00000   0.00000   0.00000   0.00000
    X7        1.31549  -0.00022   0.00000  -0.00018  -0.00018   1.31531
    Y7       -2.27813  -0.00001   0.00000   0.00003   0.00003  -2.27811
    Z7        0.00000   0.00000   0.00000   0.00000   0.00000   0.00000
    X8        2.34612  -0.00001   0.00000  -0.00051  -0.00051   2.34561
    Y8       -4.06265  -0.00003   0.00000  -0.00021  -0.00021  -4.06287
    Z8        0.00000   0.00000   0.00000   0.00000   0.00000   0.00000
    X9       -1.31549   0.00022   0.00000   0.00018   0.00018  -1.31531
    Y9        2.27813   0.00001   0.00000  -0.00003  -0.00003   2.27811
    Z9        0.00000   0.00000   0.00000   0.00000   0.00000   0.00000
   X10       -2.34612   0.00001   0.00000   0.00051   0.00051  -2.34561
   Y10        4.06265   0.00003   0.00000   0.00021   0.00021   4.06287
   Z10        0.00000   0.00000   0.00000   0.00000   0.00000   0.00000
   X11       -1.31549   0.00022   0.00000   0.00018   0.00018  -1.31531
   Y11       -2.27813  -0.00001   0.00000   0.00003   0.00003  -2.27811
   Z11        0.00000   0.00000   0.00000   0.00000   0.00000   0.00000
   X12       -2.34612   0.00001   0.00000   0.00051   0.00051  -2.34561
   Y12       -4.06265  -0.00003   0.00000  -0.00021  -0.00021  -4.06287
   Z12        0.00000   0.00000   0.00000   0.00000   0.00000   0.00000
         Item               Value     Threshold  Converged?
 Maximum Force            0.000220     0.000450     YES
 RMS     Force            0.000075     0.000300     YES
 Maximum Displacement     0.000510     0.001800     YES
 RMS     Displacement     0.000194     0.001200     YES
 Predicted change in Energy=-1.060604D-07
 Optimization completed.
    -- Stationary point found.
 GradGradGradGradGradGradGradGradGradGradGradGradGradGradGradGradGradGrad

 Largest change from initial coordinates is atom    0       0.000 Angstoms.
 Leave Link  103 at Tue Sep  1 09:11:46 2015, MaxMem=  134217728 cpu:       0.0
 (Enter /apps/Gausian/g09/l202.exe)
                          Input orientation:                          
 ---------------------------------------------------------------------
 Center     Atomic      Atomic             Coordinates (Angstroms)
 Number     Number       Type             X           Y           Z
 ---------------------------------------------------------------------
      1          6           0        1.392073    0.000000    0.000000
      2          1           0        2.482587    0.000000    0.000000
      3          6           0       -1.392073    0.000000    0.000000
      4          1           0       -2.482587    0.000000    0.000000
      5          6           0        0.696126    1.205536    0.000000
      6          1           0        1.241515    2.149864    0.000000
      7          6           0        0.696126   -1.205536    0.000000
      8          1           0        1.241515   -2.149864    0.000000
      9          6           0       -0.696126    1.205536    0.000000
     10          1           0       -1.241515    2.149864    0.000000
     11          6           0       -0.696126   -1.205536    0.000000
     12          1           0       -1.241515   -2.149864    0.000000
 ---------------------------------------------------------------------
                    Distance matrix (angstroms):
                    1          2          3          4          5
     1  C    0.000000
     2  H    1.090514   0.000000
     3  C    2.784146   3.874660   0.000000
     4  H    3.874660   4.965174   1.090514   0.000000
     5  C    1.391998   2.155171   2.411201   3.399637   0.000000
     6  H    2.155129   2.482373   3.399662   4.300099   1.090507
     7  C    1.391998   2.155171   2.411201   3.399637   2.411072
     8  H    2.155129   2.482373   3.399662   4.300099   3.399435
     9  C    2.411201   3.399637   1.391998   2.155171   1.392252
    10  H    3.399662   4.300099   2.155129   2.482373   2.155506
    11  C    2.411201   3.399637   1.391998   2.155171   2.784176
    12  H    3.399662   4.300099   2.155129   2.482373   3.874682
                    6          7          8          9         10
     6  H    0.000000
     7  C    3.399435   0.000000
     8  H    4.299728   1.090507   0.000000
     9  C    2.155506   2.784176   3.874682   0.000000
    10  H    2.483030   3.874682   4.965189   1.090507   0.000000
    11  C    3.874682   1.392252   2.155506   2.411072   3.399435
    12  H    4.965189   2.155506   2.483030   3.399435   4.299728
                   11         12
    11  C    0.000000
    12  H    1.090507   0.000000
 Symmetry turned off by external request.
 Stoichiometry    C6H6
 Framework group  D2H[C2"(HC.CH),SG(C4H4)]
 Deg. of freedom     6
 Full point group                 D2H     NOp   8
 Rotational constants (GHZ):      5.7175039      5.7165810      2.8585212
 Leave Link  202 at Tue Sep  1 09:11:46 2015, MaxMem=  134217728 cpu:       0.0
 (Enter /apps/Gausian/g09/l9999.exe)

 Test job not archived.
 1\1\GINC-NODE1-012\FOpt\RLC-BLYP\STO-3G\C6H6\TM162\01-Sep-2015\0\\#P o
 pt=(CalcFC,Cartesian,Maxcycle=150) IOP(1/33=1) NoSymm LC-BLYP/STO-3G F
 ormcheck\\benzene\\0,1\C,1.392073,0.,0.\H,2.482587,0.,0.\C,-1.392073,0
 .,0.\H,-2.482587,0.,0.\C,0.696126,1.205536,0.\H,1.241515,2.149864,0.\C
 ,0.696126,-1.205536,0.\H,1.241515,-2.149864,0.\C,-0.696126,1.205536,0.
 \H,-1.241515,2.149864,0.\C,-0.696126,-1.205536,0.\H,-1.241515,-2.14986
 4,0.\\Version=EM64L-G09RevC.01\HF=-228.631781\RMSD=6.513e-09\RMSF=7.45
 7e-05\Dipole=0.,0.,0.\Polar=0.,0.,0.,0.,0.,0.\Quadrupole=1.265894,1.26
 41928,-2.5300867,0.,0.,0.\PG=D02H [C2"(H1C1.C1H1),SG(C4H4)]\\@


 WAR ES EIN GOTT DER DIESE ZEICHEN SCHRIEB?
          - LUDWIG BOLTZMANN, QUOTING GOETHE, ABOUT MAXWELL'S EQUATIONS.
 Job cpu time:  0 days  0 hours  0 minutes 21.2 seconds.
 File lengths (MBytes):  RWF=      6 Int=      0 D2E=      0 Chk=      1 Scr=      1
 Normal termination of Gaussian 09 at Tue Sep  1 09:11:46 2015.
