 Entering Gaussian System, Link 0=g09
 Initial command:
 /apps/Gausian/g09/l1.exe /local/tm162.488630/scratch/Gau-15497.inp -scrdir=/local/tm162.488630/scratch/
 Entering Link 1 = /apps/Gausian/g09/l1.exe PID=     15498.
  
 Copyright (c) 1988,1990,1992,1993,1995,1998,2003,2009,2011,
            Gaussian, Inc.  All Rights Reserved.
  
 This is part of the Gaussian(R) 09 program.  It is based on
 the Gaussian(R) 03 system (copyright 2003, Gaussian, Inc.),
 the Gaussian(R) 98 system (copyright 1998, Gaussian, Inc.),
 the Gaussian(R) 94 system (copyright 1995, Gaussian, Inc.),
 the Gaussian 92(TM) system (copyright 1992, Gaussian, Inc.),
 the Gaussian 90(TM) system (copyright 1990, Gaussian, Inc.),
 the Gaussian 88(TM) system (copyright 1988, Gaussian, Inc.),
 the Gaussian 86(TM) system (copyright 1986, Carnegie Mellon
 University), and the Gaussian 82(TM) system (copyright 1983,
 Carnegie Mellon University). Gaussian is a federally registered
 trademark of Gaussian, Inc.
  
 This software contains proprietary and confidential information,
 including trade secrets, belonging to Gaussian, Inc.
  
 This software is provided under written license and may be
 used, copied, transmitted, or stored only in accord with that
 written license.
  
 The following legend is applicable only to US Government
 contracts under FAR:
  
                    RESTRICTED RIGHTS LEGEND
  
 Use, reproduction and disclosure by the US Government is
 subject to restrictions as set forth in subparagraphs (a)
 and (c) of the Commercial Computer Software - Restricted
 Rights clause in FAR 52.227-19.
  
 Gaussian, Inc.
 340 Quinnipiac St., Bldg. 40, Wallingford CT 06492
  
  
 ---------------------------------------------------------------
 Warning -- This program may not be used in any manner that
 competes with the business of Gaussian, Inc. or will provide
 assistance to any competitor of Gaussian, Inc.  The licensee
 of this program is prohibited from giving any competitor of
 Gaussian, Inc. access to this program.  By using this program,
 the user acknowledges that Gaussian, Inc. is engaged in the
 business of creating and licensing software in the field of
 computational chemistry and represents and warrants to the
 licensee that it is not a competitor of Gaussian, Inc. and that
 it will not use this program in any manner prohibited above.
 ---------------------------------------------------------------
  

 Cite this work as:
 Gaussian 09, Revision C.01,
 M. J. Frisch, G. W. Trucks, H. B. Schlegel, G. E. Scuseria, 
 M. A. Robb, J. R. Cheeseman, G. Scalmani, V. Barone, B. Mennucci, 
 G. A. Petersson, H. Nakatsuji, M. Caricato, X. Li, H. P. Hratchian, 
 A. F. Izmaylov, J. Bloino, G. Zheng, J. L. Sonnenberg, M. Hada, 
 M. Ehara, K. Toyota, R. Fukuda, J. Hasegawa, M. Ishida, T. Nakajima, 
 Y. Honda, O. Kitao, H. Nakai, T. Vreven, J. A. Montgomery, Jr., 
 J. E. Peralta, F. Ogliaro, M. Bearpark, J. J. Heyd, E. Brothers, 
 K. N. Kudin, V. N. Staroverov, T. Keith, R. Kobayashi, J. Normand, 
 K. Raghavachari, A. Rendell, J. C. Burant, S. S. Iyengar, J. Tomasi, 
 M. Cossi, N. Rega, J. M. Millam, M. Klene, J. E. Knox, J. B. Cross, 
 V. Bakken, C. Adamo, J. Jaramillo, R. Gomperts, R. E. Stratmann, 
 O. Yazyev, A. J. Austin, R. Cammi, C. Pomelli, J. W. Ochterski, 
 R. L. Martin, K. Morokuma, V. G. Zakrzewski, G. A. Voth, 
 P. Salvador, J. J. Dannenberg, S. Dapprich, A. D. Daniels, 
 O. Farkas, J. B. Foresman, J. V. Ortiz, J. Cioslowski, 
 and D. J. Fox, Gaussian, Inc., Wallingford CT, 2010.
 
 ******************************************
 Gaussian 09:  EM64L-G09RevC.01 23-Sep-2011
                18-Jan-2016 
 ******************************************
 %rwf=/local/tm162.488630/ground_freq.g09.rwf
 %nosave
 %chk=/local/tm162.488630/benzG.chk
 %nproc=1
 Will use up to    1 processors via shared memory.
 %mem=1Gb
 ----------------------------------------------------------------------
 #P opt=(CalcFC,Cartesian,Maxcycle=100) IOP(1/33=1) NoSymm B3lyp/Def2TZ
 VP Freq
 ----------------------------------------------------------------------
 1/6=100,10=4,14=-1,18=10,26=3,33=1,38=1/1,3;
 2/12=2,15=1,17=6,18=5,29=2,40=1/2;
 3/5=44,7=101,11=2,16=1,25=1,30=1,71=2,74=-5/1,2,3;
 4//1;
 5/5=2,38=5/2;
 8/6=4,10=90,11=11/1;
 11/6=1,8=1,9=11,15=111,16=1,31=1/1,2,10;
 10/6=1,7=6,13=1,31=1/2;
 6/7=2,8=2,9=2,10=2,28=1/1;
 7/7=1,10=1,18=20,25=1,30=1/1,2,3,16;
 1/6=100,10=4,14=-1,18=10,33=1/3(2);
 2/15=1,29=1/2;
 99/12=1/99;
 2/15=1,29=1/2;
 3/5=44,7=101,11=2,16=1,25=1,30=1,71=1,74=-5/1,2,3;
 4/5=5,16=3/1;
 5/5=2,38=5/2;
 7/7=1,30=1/1,2,3,16;
 1/6=100,14=-1,18=10,33=1/3(-5);
 2/15=1,29=1/2;
 6/7=2,8=2,9=2,10=2,19=2,28=1/1;
 99/9=1,12=1/99;
 Leave Link    1 at Mon Jan 18 15:38:18 2016, MaxMem=  134217728 cpu:       0.0
 (Enter /apps/Gausian/g09/l101.exe)
 ONIOM data not found on unit 2.
 -----
 benzE
 -----
 Charge =  0 Multiplicity = 1
 Symbolic Z-Matrix:
 C                     1.38442   0.        0. 
 H                     2.47246   0.        0. 
 C                    -1.38442   0.        0. 
 H                    -2.47246   0.        0. 
 C                     0.69221   1.19895   0. 
 H                     1.23625   2.1412    0. 
 C                     0.69221  -1.19895   0. 
 H                     1.23625  -2.1412    0. 
 C                    -0.69221   1.19895   0. 
 H                    -1.23625   2.1412    0. 
 C                    -0.69221  -1.19895   0. 
 H                    -1.23625  -2.1412    0. 
 
 RdStrC is calling ZToCFu for IStruc=1 NZ=    12.
 PrtBox:  NBox=     3 Levels=  1 BoxLen=    8.00 SMaxX=        9.34
          Shift=            4.672264            4.046286            0.000000
 Box      1 Number                   0 centers from      1 to      9:
 Box      2 Number                   2 centers from     10 to     11:
 Box      3 Number                   4 centers from     12 to     12:
 ITRead=  0  0  0  0  0  0  0  0  0  0  0  0
 MicOpt= -1 -1 -1 -1 -1 -1 -1 -1 -1 -1 -1 -1
 NAtoms=     12 NQM=        0 NQMF=       0 NMMI=     12 NMMIF=      0
                NMic=       0 NMicF=      0.
                    Isotopes and Nuclear Properties:
 (Nuclear quadrupole moments (NQMom) in fm**2, nuclear magnetic moments (NMagM)
  in nuclear magnetons)

  Atom         1           2           3           4           5           6           7           8           9          10
 IAtWgt=          12           1          12           1          12           1          12           1          12           1
 AtmWgt=  12.0000000   1.0078250  12.0000000   1.0078250  12.0000000   1.0078250  12.0000000   1.0078250  12.0000000   1.0078250
 NucSpn=           0           1           0           1           0           1           0           1           0           1
 AtZEff=   0.0000000   0.0000000   0.0000000   0.0000000   0.0000000   0.0000000   0.0000000   0.0000000   0.0000000   0.0000000
 NQMom=    0.0000000   0.0000000   0.0000000   0.0000000   0.0000000   0.0000000   0.0000000   0.0000000   0.0000000   0.0000000
 NMagM=    0.0000000   2.7928460   0.0000000   2.7928460   0.0000000   2.7928460   0.0000000   2.7928460   0.0000000   2.7928460

  Atom        11          12
 IAtWgt=          12           1
 AtmWgt=  12.0000000   1.0078250
 NucSpn=           0           1
 AtZEff=   0.0000000   0.0000000
 NQMom=    0.0000000   0.0000000
 NMagM=    0.0000000   2.7928460
 No MM parameters found.
 Leave Link  101 at Mon Jan 18 15:38:18 2016, MaxMem=  134217728 cpu:       0.1
 (Enter /apps/Gausian/g09/l103.exe)

 GradGradGradGradGradGradGradGradGradGradGradGradGradGradGradGradGradGrad
 Berny optimization.
 Initialization pass.
 No Z-matrix variables, so optimization will use Cartesian coordinates.
 Maximum allowed force set to 1.00D+20.
 Trust Radius=3.00D-01 FncErr=1.00D-07 GrdErr=1.00D-06
 Number of steps in this run=    100 maximum allowed number of steps=    100.
 GradGradGradGradGradGradGradGradGradGradGradGradGradGradGradGradGradGrad

 Leave Link  103 at Mon Jan 18 15:38:18 2016, MaxMem=  134217728 cpu:       0.0
 (Enter /apps/Gausian/g09/l202.exe)
 ---------------------------------------------------------------------------------------------------
                            Z-MATRIX (ANGSTROMS AND DEGREES)
   CD    Cent   Atom    N1       Length/X        N2       Alpha/Y        N3        Beta/Z          J
 ---------------------------------------------------------------------------------------------------
      1      1  C        0   1.384419          0.000000          0.000000
      2      2  H        0   2.472456          0.000000          0.000000
      3      3  C        0  -1.384419          0.000000          0.000000
      4      4  H        0  -2.472456          0.000000          0.000000
      5      5  C        0   0.692212          1.198948          0.000000
      6      6  H        0   1.236247          2.141203          0.000000
      7      7  C        0   0.692212         -1.198948          0.000000
      8      8  H        0   1.236247         -2.141203          0.000000
      9      9  C        0  -0.692212          1.198948          0.000000
     10     10  H        0  -1.236247          2.141203          0.000000
     11     11  C        0  -0.692212         -1.198948          0.000000
     12     12  H        0  -1.236247         -2.141203          0.000000
 ---------------------------------------------------------------------------------------------------
                         Z-Matrix orientation:                         
 ---------------------------------------------------------------------
 Center     Atomic      Atomic             Coordinates (Angstroms)
 Number     Number       Type             X           Y           Z
 ---------------------------------------------------------------------
      1          6           0        1.384419    0.000000    0.000000
      2          1           0        2.472456    0.000000    0.000000
      3          6           0       -1.384419    0.000000    0.000000
      4          1           0       -2.472456    0.000000    0.000000
      5          6           0        0.692212    1.198948    0.000000
      6          1           0        1.236247    2.141203    0.000000
      7          6           0        0.692212   -1.198948    0.000000
      8          1           0        1.236247   -2.141203    0.000000
      9          6           0       -0.692212    1.198948    0.000000
     10          1           0       -1.236247    2.141203    0.000000
     11          6           0       -0.692212   -1.198948    0.000000
     12          1           0       -1.236247   -2.141203    0.000000
 ---------------------------------------------------------------------
                    Distance matrix (angstroms):
                    1          2          3          4          5
     1  C    0.000000
     2  H    1.088036   0.000000
     3  C    2.768839   3.856875   0.000000
     4  H    3.856875   4.944912   1.088036   0.000000
     5  C    1.384423   2.146333   2.397889   3.384168   0.000000
     6  H    2.146323   2.472440   3.384175   4.282432   1.088034
     7  C    1.384423   2.146333   2.397889   3.384168   2.397896
     8  H    2.146323   2.472440   3.384175   4.282432   3.384166
     9  C    2.397889   3.384168   1.384423   2.146333   1.384423
    10  H    3.384175   4.282432   2.146323   2.472440   2.146345
    11  C    2.397889   3.384168   1.384423   2.146333   2.768850
    12  H    3.384175   4.282432   2.146323   2.472440   3.856884
                    6          7          8          9         10
     6  H    0.000000
     7  C    3.384166   0.000000
     8  H    4.282405   1.088034   0.000000
     9  C    2.146345   2.768850   3.856885   0.000000
    10  H    2.472494   3.856884   4.944919   1.088034   0.000000
    11  C    3.856885   1.384423   2.146345   2.397896   3.384166
    12  H    4.944919   2.146345   2.472494   3.384166   4.282405
                   11         12
    11  C    0.000000
    12  H    1.088034   0.000000
 Symmetry turned off by external request.
 Stoichiometry    C6H6
 Framework group  D2H[C2"(HC.CH),SG(C4H4)]
 Deg. of freedom     6
 Full point group                 D2H     NOp   8
 Rotational constants (GHZ):      5.7770052      5.7769906      2.8884990
 Leave Link  202 at Mon Jan 18 15:38:18 2016, MaxMem=  134217728 cpu:       0.0
 (Enter /apps/Gausian/g09/l301.exe)
 Standard basis: def2TZVP (5D, 7F)
 Ernie: Thresh=  0.10000D-02 Tol=  0.10000D-05 Strict=F.
 Integral buffers will be    131072 words long.
 Raffenetti 2 integral format.
 Two-electron integral symmetry is turned off.
   222 basis functions,   354 primitive gaussians,   252 cartesian basis functions
    21 alpha electrons       21 beta electrons
       nuclear repulsion energy       204.6767178891 Hartrees.
 IExCor=  402 DFT=T Ex+Corr=B3LYP ExCW=0 ScaHFX=  0.200000
 ScaDFX=  0.800000  0.720000  1.000000  0.810000 ScalE2=  1.000000  1.000000
 IRadAn=      0 IRanWt=     -1 IRanGd=            0 ICorTp=0
 NAtoms=   12 NActive=   12 NUniq=   12 SFac= 1.00D+00 NAtFMM=   60 NAOKFM=F Big=F
 Leave Link  301 at Mon Jan 18 15:38:18 2016, MaxMem=  134217728 cpu:       0.1
 (Enter /apps/Gausian/g09/l302.exe)
 NPDir=0 NMtPBC=     1 NCelOv=     1 NCel=       1 NClECP=     1 NCelD=      1
         NCelK=      1 NCelE2=     1 NClLst=     1 CellRange=     0.0.
 One-electron integrals computed using PRISM.
   1 Symmetry operations used in ECPInt.
 ECPInt:  NShTT=    4095 NPrTT=   12396 LenC2=    4075 LenP2D=   10437.
 LDataN:  DoStor=T MaxTD1= 6 Len=  172
 NBasis=   222 RedAO= T  NBF=   222
 NBsUse=   222 1.00D-06 NBFU=   222
 Precomputing XC quadrature grid using
 IXCGrd= 2 IRadAn=           0 IRanWt=          -1 IRanGd=           0 AccXCQ= 0.00D+00.
 NRdTot=     750 NPtTot=       95532 NUsed=      100951 NTot=      100983
 NSgBfM=   251   251   251   251   251 NAtAll=    12    12.
 Leave Link  302 at Mon Jan 18 15:38:19 2016, MaxMem=  134217728 cpu:       0.3
 (Enter /apps/Gausian/g09/l303.exe)
 DipDrv:  MaxL=1.
 Leave Link  303 at Mon Jan 18 15:38:19 2016, MaxMem=  134217728 cpu:       0.0
 (Enter /apps/Gausian/g09/l401.exe)
 Harris functional with IExCor=  402 diagonalized for initial guess.
 ExpMin= 9.52D-02 ExpMax= 1.36D+04 ExpMxC= 4.63D+02 IAcc=2 IRadAn=         4 AccDes= 0.00D+00
 HarFok:  IExCor=  402 AccDes= 0.00D+00 IRadAn=         4 IDoV= 1
 ScaDFX=  1.000000  1.000000  1.000000  1.000000
 FoFCou: FMM=F IPFlag=           0 FMFlag=      100000 FMFlg1=           0
         NFxFlg=           0 DoJE=T BraDBF=F KetDBF=T FulRan=T
         Omega=  0.000000  0.000000  1.000000  0.000000  0.000000 ICntrl=     500 IOpCl=  0
         NMat0=    1 NMatS0=    1 NMatT0=    0 NMatD0=    1 NMtDS0=    0 NMtDT0=    0
         I1Cent=           4 NGrid=           0.
 Symmetry not used in FoFCou.
 Harris En= -232.372841541357    
 Leave Link  401 at Mon Jan 18 15:38:22 2016, MaxMem=  134217728 cpu:       3.0
 (Enter /apps/Gausian/g09/l502.exe)
 Closed shell SCF:
 Requested convergence on RMS density matrix=1.00D-08 within 128 cycles.
 Requested convergence on MAX density matrix=1.00D-06.
 Requested convergence on             energy=1.00D-06.
 No special actions if energy rises.
 Using DIIS extrapolation, IDIIS=  1040.
 Two-electron integral symmetry not used.
       100830 words used for storage of precomputed grid.
 IEnd=      312536 IEndB=      312536 NGot=   134217728 MDV=   133985589
 LenX=   133985589 LenY=   133921644
 Fock matrices will be formed incrementally for  20 cycles.
 Integral accuracy reduced to 1.0D-05 until final iterations.

 Cycle   1  Pass 0  IDiag  1:
 FoFCou: FMM=F IPFlag=           0 FMFlag=      100000 FMFlg1=           0
         NFxFlg=           0 DoJE=F BraDBF=F KetDBF=F FulRan=T
         Omega=  0.000000  0.000000  1.000000  0.000000  0.000000 ICntrl=       0 IOpCl=  0
         NMat0=    1 NMatS0=    1 NMatT0=    0 NMatD0=    1 NMtDS0=    0 NMtDT0=    0
         I1Cent=           0 NGrid=           0.
 Symmetry not used in FoFCou.
 E= -232.163368894182    
 DIIS: error= 3.30D-02 at cycle   1 NSaved=   1.
 NSaved= 1 IEnMin= 1 EnMin= -232.163368894182     IErMin= 1 ErrMin= 3.30D-02
 ErrMax= 3.30D-02 EMaxC= 1.00D-01 BMatC= 1.65D-01 BMatP= 1.65D-01
 IDIUse=3 WtCom= 6.70D-01 WtEn= 3.30D-01
 Coeff-Com:  0.100D+01
 Coeff-En:   0.100D+01
 Coeff:      0.100D+01
 Gap=     0.247 Goal=   None    Shift=    0.000
 GapD=    0.247 DampG=1.000 DampE=0.500 DampFc=0.5000 IDamp=-1.
 Damping current iteration by 5.00D-01
 RMSDP=3.52D-03 MaxDP=5.55D-02              OVMax= 1.79D-01

 Cycle   2  Pass 0  IDiag  1:
 RMSU=  1.18D-03    CP:  9.47D-01
 E= -232.235874978925     Delta-E=       -0.072506084743 Rises=F Damp=T
 DIIS: error= 1.05D-02 at cycle   2 NSaved=   2.
 NSaved= 2 IEnMin= 2 EnMin= -232.235874978925     IErMin= 2 ErrMin= 1.05D-02
 ErrMax= 1.05D-02 EMaxC= 1.00D-01 BMatC= 9.74D-03 BMatP= 1.65D-01
 IDIUse=3 WtCom= 8.95D-01 WtEn= 1.05D-01
 Coeff-Com:  0.611D-01 0.939D+00
 Coeff-En:   0.150D+00 0.850D+00
 Coeff:      0.704D-01 0.930D+00
 Gap=     0.309 Goal=   None    Shift=    0.000
 RMSDP=9.20D-04 MaxDP=1.41D-02 DE=-7.25D-02 OVMax= 1.05D-01

 Cycle   3  Pass 0  IDiag  1:
 RMSU=  6.43D-04    CP:  9.36D-01  9.52D-01
 E= -232.334447987967     Delta-E=       -0.098573009043 Rises=F Damp=F
 DIIS: error= 7.40D-03 at cycle   3 NSaved=   3.
 NSaved= 3 IEnMin= 3 EnMin= -232.334447987967     IErMin= 3 ErrMin= 7.40D-03
 ErrMax= 7.40D-03 EMaxC= 1.00D-01 BMatC= 2.73D-03 BMatP= 9.74D-03
 IDIUse=3 WtCom= 9.26D-01 WtEn= 7.40D-02
 Coeff-Com: -0.377D-01 0.312D+00 0.725D+00
 Coeff-En:   0.000D+00 0.000D+00 0.100D+01
 Coeff:     -0.349D-01 0.289D+00 0.746D+00
 Gap=     0.247 Goal=   None    Shift=    0.000
 RMSDP=1.76D-04 MaxDP=3.17D-03 DE=-9.86D-02 OVMax= 1.18D-02

 Cycle   4  Pass 0  IDiag  1:
 RMSU=  9.83D-05    CP:  9.34D-01  9.96D-01  9.16D-01
 E= -232.337031359995     Delta-E=       -0.002583372028 Rises=F Damp=F
 DIIS: error= 9.37D-04 at cycle   4 NSaved=   4.
 NSaved= 4 IEnMin= 4 EnMin= -232.337031359995     IErMin= 4 ErrMin= 9.37D-04
 ErrMax= 9.37D-04 EMaxC= 1.00D-01 BMatC= 7.22D-05 BMatP= 2.73D-03
 IDIUse=3 WtCom= 9.91D-01 WtEn= 9.37D-03
 Coeff-Com: -0.118D-01 0.265D-01 0.181D+00 0.804D+00
 Coeff-En:   0.000D+00 0.000D+00 0.000D+00 0.100D+01
 Coeff:     -0.117D-01 0.262D-01 0.180D+00 0.806D+00
 Gap=     0.247 Goal=   None    Shift=    0.000
 RMSDP=4.81D-05 MaxDP=5.33D-04 DE=-2.58D-03 OVMax= 1.44D-03

 Cycle   5  Pass 0  IDiag  1:
 RMSU=  1.60D-05    CP:  9.34D-01  1.01D+00  9.51D-01  8.75D-01
 E= -232.337095211711     Delta-E=       -0.000063851716 Rises=F Damp=F
 DIIS: error= 3.60D-05 at cycle   5 NSaved=   5.
 NSaved= 5 IEnMin= 5 EnMin= -232.337095211711     IErMin= 5 ErrMin= 3.60D-05
 ErrMax= 3.60D-05 EMaxC= 1.00D-01 BMatC= 1.26D-07 BMatP= 7.22D-05
 IDIUse=1 WtCom= 1.00D+00 WtEn= 0.00D+00
 Coeff-Com: -0.360D-03-0.117D-02 0.693D-02 0.635D-01 0.931D+00
 Coeff:     -0.360D-03-0.117D-02 0.693D-02 0.635D-01 0.931D+00
 Gap=     0.247 Goal=   None    Shift=    0.000
 RMSDP=6.05D-06 MaxDP=6.97D-05 DE=-6.39D-05 OVMax= 8.54D-05

 Initial convergence to 1.0D-05 achieved.  Increase integral accuracy.
 Cycle   6  Pass 1  IDiag  1:
 E= -232.337030009258     Delta-E=        0.000065202453 Rises=F Damp=F
 DIIS: error= 7.67D-05 at cycle   1 NSaved=   1.
 NSaved= 1 IEnMin= 1 EnMin= -232.337030009258     IErMin= 1 ErrMin= 7.67D-05
 ErrMax= 7.67D-05 EMaxC= 1.00D-01 BMatC= 3.53D-07 BMatP= 3.53D-07
 IDIUse=1 WtCom= 1.00D+00 WtEn= 0.00D+00
 Coeff-Com:  0.100D+01
 Coeff:      0.100D+01
 Gap=     0.247 Goal=   None    Shift=    0.000
 RMSDP=6.05D-06 MaxDP=6.97D-05 DE= 6.52D-05 OVMax= 2.04D-04

 Cycle   7  Pass 1  IDiag  1:
 RMSU=  4.67D-05    CP:  1.00D+00
 E= -232.337030354321     Delta-E=       -0.000000345063 Rises=F Damp=F
 DIIS: error= 1.05D-05 at cycle   2 NSaved=   2.
 NSaved= 2 IEnMin= 2 EnMin= -232.337030354321     IErMin= 2 ErrMin= 1.05D-05
 ErrMax= 1.05D-05 EMaxC= 1.00D-01 BMatC= 6.57D-09 BMatP= 3.53D-07
 IDIUse=1 WtCom= 1.00D+00 WtEn= 0.00D+00
 Coeff-Com: -0.819D-02 0.101D+01
 Coeff:     -0.819D-02 0.101D+01
 Gap=     0.247 Goal=   None    Shift=    0.000
 RMSDP=1.81D-06 MaxDP=2.79D-05 DE=-3.45D-07 OVMax= 4.09D-05

 Cycle   8  Pass 1  IDiag  1:
 RMSU=  4.49D-07    CP:  1.00D+00  1.03D+00
 E= -232.337030352913     Delta-E=        0.000000001408 Rises=F Damp=F
 DIIS: error= 9.70D-06 at cycle   3 NSaved=   3.
 NSaved= 3 IEnMin= 2 EnMin= -232.337030354321     IErMin= 3 ErrMin= 9.70D-06
 ErrMax= 9.70D-06 EMaxC= 1.00D-01 BMatC= 8.51D-09 BMatP= 6.57D-09
 IDIUse=1 WtCom= 1.00D+00 WtEn= 0.00D+00
 Coeff-Com: -0.187D-01 0.548D+00 0.471D+00
 Coeff:     -0.187D-01 0.548D+00 0.471D+00
 Gap=     0.247 Goal=   None    Shift=    0.000
 RMSDP=2.71D-07 MaxDP=5.35D-06 DE= 1.41D-09 OVMax= 2.34D-05

 Cycle   9  Pass 1  IDiag  1:
 RMSU=  1.45D-07    CP:  1.00D+00  1.03D+00  7.23D-01
 E= -232.337030361089     Delta-E=       -0.000000008176 Rises=F Damp=F
 DIIS: error= 1.02D-06 at cycle   4 NSaved=   4.
 NSaved= 4 IEnMin= 4 EnMin= -232.337030361089     IErMin= 4 ErrMin= 1.02D-06
 ErrMax= 1.02D-06 EMaxC= 1.00D-01 BMatC= 1.01D-10 BMatP= 6.57D-09
 IDIUse=1 WtCom= 1.00D+00 WtEn= 0.00D+00
 Coeff-Com: -0.616D-02 0.150D+00 0.163D+00 0.693D+00
 Coeff:     -0.616D-02 0.150D+00 0.163D+00 0.693D+00
 Gap=     0.247 Goal=   None    Shift=    0.000
 RMSDP=4.08D-08 MaxDP=8.16D-07 DE=-8.18D-09 OVMax= 4.00D-06

 Cycle  10  Pass 1  IDiag  1:
 RMSU=  2.50D-08    CP:  1.00D+00  1.03D+00  7.43D-01  9.23D-01
 E= -232.337030361175     Delta-E=       -0.000000000086 Rises=F Damp=F
 DIIS: error= 3.54D-07 at cycle   5 NSaved=   5.
 NSaved= 5 IEnMin= 5 EnMin= -232.337030361175     IErMin= 5 ErrMin= 3.54D-07
 ErrMax= 3.54D-07 EMaxC= 1.00D-01 BMatC= 1.29D-11 BMatP= 1.01D-10
 IDIUse=1 WtCom= 1.00D+00 WtEn= 0.00D+00
 Coeff-Com: -0.154D-02 0.314D-01 0.388D-01 0.298D+00 0.633D+00
 Coeff:     -0.154D-02 0.314D-01 0.388D-01 0.298D+00 0.633D+00
 Gap=     0.247 Goal=   None    Shift=    0.000
 RMSDP=1.32D-08 MaxDP=4.21D-07 DE=-8.58D-11 OVMax= 1.36D-06

 Cycle  11  Pass 1  IDiag  1:
 RMSU=  7.09D-09    CP:  1.00D+00  1.03D+00  7.48D-01  9.41D-01  8.04D-01
 E= -232.337030361186     Delta-E=       -0.000000000011 Rises=F Damp=F
 DIIS: error= 1.02D-07 at cycle   6 NSaved=   6.
 NSaved= 6 IEnMin= 6 EnMin= -232.337030361186     IErMin= 6 ErrMin= 1.02D-07
 ErrMax= 1.02D-07 EMaxC= 1.00D-01 BMatC= 1.72D-12 BMatP= 1.29D-11
 IDIUse=1 WtCom= 1.00D+00 WtEn= 0.00D+00
 Coeff-Com: -0.335D-04-0.258D-02-0.657D-03 0.655D-01 0.316D+00 0.622D+00
 Coeff:     -0.335D-04-0.258D-02-0.657D-03 0.655D-01 0.316D+00 0.622D+00
 Gap=     0.247 Goal=   None    Shift=    0.000
 RMSDP=5.25D-09 MaxDP=1.29D-07 DE=-1.10D-11 OVMax= 3.37D-07

 SCF Done:  E(RB3LYP) =  -232.337030361     A.U. after   11 cycles
             Convg  =    0.5249D-08             -V/T =  2.0051
 KE= 2.311651174841D+02 PE=-9.478786464751D+02 EE= 2.796997807407D+02
 Leave Link  502 at Mon Jan 18 15:41:37 2016, MaxMem=  134217728 cpu:     172.0
 (Enter /apps/Gausian/g09/l801.exe)
 Range of M.O.s used for correlation:     1   222
 NBasis=   222 NAE=    21 NBE=    21 NFC=     0 NFV=     0
 NROrb=    222 NOA=    21 NOB=    21 NVA=   201 NVB=   201

 **** Warning!!: The largest alpha MO coefficient is  0.80989155D+02

 Leave Link  801 at Mon Jan 18 15:41:37 2016, MaxMem=  134217728 cpu:       0.0
 (Enter /apps/Gausian/g09/l1101.exe)
 Using compressed storage, NAtomX=    12.
 Will process  13 centers per pass.
   1 Symmetry operations used in ECPInt.
 ECPInt:  NShTT=    4095 NPrTT=   12396 LenC2=    4075 LenP2D=   10437.
 LDataN:  DoStor=T MaxTD1= 7 Len=  274
 Leave Link 1101 at Mon Jan 18 15:41:38 2016, MaxMem=  134217728 cpu:       0.3
 (Enter /apps/Gausian/g09/l1102.exe)
 Symmetrizing basis deriv contribution to polar:
 IMax=3 JMax=2 DiffMx= 0.00D+00
 Leave Link 1102 at Mon Jan 18 15:41:38 2016, MaxMem=  134217728 cpu:       0.0
 (Enter /apps/Gausian/g09/l1110.exe)
 Forming Gx(P) for the SCF density, NAtomX=    12.
 Integral derivatives from FoFDir/FoFCou, PRISM(SPDF).
 Do as many integral derivatives as possible in FoFDir.
 G2DrvN: MDV=     134217528.
 G2DrvN: will do    13 centers at a time, making    1 passes doing MaxLOS=3.
 Calling FoFCou, ICntrl=  3107 FMM=F I1Cent=   0 AccDes= 0.00D+00.
 FoFCou: FMM=F IPFlag=           0 FMFlag=      100000 FMFlg1=           0
         NFxFlg=           0 DoJE=F BraDBF=F KetDBF=F FulRan=T
         Omega=  0.000000  0.000000  1.000000  0.000000  0.000000 ICntrl=    3107 IOpCl=  0
         NMat0=    1 NMatS0=    1 NMatT0=    0 NMatD0=    1 NMtDS0=    0 NMtDT0=    0
         I1Cent=           0 NGrid=           0.
 Symmetry not used in FoFCou.
 FoFDir/FoFCou used for L=0 through L=3.
 End of G2Drv Frequency-dependent properties file   721 does not exist.
 End of G2Drv Frequency-dependent properties file   722 does not exist.
 Leave Link 1110 at Mon Jan 18 15:46:09 2016, MaxMem=  134217728 cpu:     238.8
 (Enter /apps/Gausian/g09/l1002.exe)
 Minotr:  Closed shell wavefunction.
          IDoAtm=111111111111
          Direct CPHF calculation.
          Differentiating once with respect to nuclear coordinates.
          Requested convergence is 1.0D-06 RMS, and 1.0D-05 maximum.
          Secondary convergence is 1.0D-12 RMS, and 1.0D-12 maximum.
          NewPWx=T KeepS1=F KeepF1=F KeepIn=T MapXYZ=F SortEE=F KeepMc=T.
          MDV=     134217604 using IRadAn=       2.
 Generate precomputed XC quadrature information.
          Solving linear equations simultaneously, MaxMat=       0.
 Symmetry not used in FoFDir.
 MinBra= 0 MaxBra= 3 Meth= 1.
 IRaf=       0 NMat=  39 IRICut=       1 DoRegI=T DoRafI=F ISym2E= 0 JSym2E=0.
          There are    39 degrees of freedom in the 1st order CPHF.  IDoFFX=5.
     33 vectors produced by pass  0 Test12= 1.08D-10 2.56D-07 XBig12= 1.45D-01 2.14D-01.
 AX will form    33 AO Fock derivatives at one time.
     33 vectors produced by pass  1 Test12= 1.08D-10 2.56D-07 XBig12= 3.05D-02 8.67D-02.
     33 vectors produced by pass  2 Test12= 1.08D-10 2.56D-07 XBig12= 5.28D-04 6.39D-03.
     33 vectors produced by pass  3 Test12= 1.08D-10 2.56D-07 XBig12= 1.42D-06 3.14D-04.
     24 vectors produced by pass  4 Test12= 1.08D-10 2.56D-07 XBig12= 3.61D-09 1.28D-05.
      3 vectors produced by pass  5 Test12= 1.08D-10 2.56D-07 XBig12= 8.88D-12 7.51D-07.
 Inverted reduced A of dimension   159 with in-core refinement.
 End of Minotr Frequency-dependent properties file   721 does not exist.
 End of Minotr Frequency-dependent properties file   722 does not exist.
 Leave Link 1002 at Mon Jan 18 15:54:37 2016, MaxMem=  134217728 cpu:     464.5
 (Enter /apps/Gausian/g09/l601.exe)
 Copying SCF densities to generalized density rwf, IOpCl= 0 IROHF=0.

 **********************************************************************

            Population analysis using the SCF density.

 **********************************************************************

 Alpha  occ. eigenvalues --  -10.17578 -10.17553 -10.17553 -10.17492 -10.17492
 Alpha  occ. eigenvalues --  -10.17463  -0.86157  -0.75071  -0.75071  -0.60631
 Alpha  occ. eigenvalues --   -0.60631  -0.52912  -0.46127  -0.45357  -0.42572
 Alpha  occ. eigenvalues --   -0.42572  -0.37557  -0.34783  -0.34783  -0.26025
 Alpha  occ. eigenvalues --   -0.26025
 Alpha virt. eigenvalues --   -0.01299  -0.01298   0.04324   0.07579   0.07580
 Alpha virt. eigenvalues --    0.10381   0.10381   0.12621   0.14316   0.14836
 Alpha virt. eigenvalues --    0.20457   0.20842   0.21529   0.21529   0.23191
 Alpha virt. eigenvalues --    0.23194   0.24635   0.24643   0.27011   0.27014
 Alpha virt. eigenvalues --    0.32558   0.32645   0.32655   0.35748   0.35755
 Alpha virt. eigenvalues --    0.38179   0.40397   0.40965   0.40965   0.43602
 Alpha virt. eigenvalues --    0.43605   0.43628   0.46143   0.46424   0.48998
 Alpha virt. eigenvalues --    0.49002   0.49186   0.50821   0.50823   0.64405
 Alpha virt. eigenvalues --    0.64413   0.65290   0.68593   0.69264   0.74729
 Alpha virt. eigenvalues --    0.74731   0.75359   0.75360   0.80143   0.84688
 Alpha virt. eigenvalues --    0.84688   0.85015   0.88646   0.88963   1.00012
 Alpha virt. eigenvalues --    1.00014   1.00681   1.00706   1.05100   1.05103
 Alpha virt. eigenvalues --    1.16682   1.17604   1.17606   1.20320   1.20327
 Alpha virt. eigenvalues --    1.22457   1.22458   1.25192   1.25194   1.28553
 Alpha virt. eigenvalues --    1.37778   1.37869   1.38276   1.45286   1.45289
 Alpha virt. eigenvalues --    1.47693   1.47698   1.48287   1.48287   1.59972
 Alpha virt. eigenvalues --    1.61034   1.64593   1.66436   1.66436   1.67508
 Alpha virt. eigenvalues --    1.69170   1.69172   1.70557   1.70560   1.76336
 Alpha virt. eigenvalues --    1.83955   1.90016   1.90016   2.03074   2.03074
 Alpha virt. eigenvalues --    2.06305   2.07002   2.07004   2.08406   2.16193
 Alpha virt. eigenvalues --    2.16193   2.21733   2.23161   2.23162   2.31773
 Alpha virt. eigenvalues --    2.46151   2.47652   2.47653   2.54441   2.55828
 Alpha virt. eigenvalues --    2.55828   2.56436   2.58456   2.65790   2.65791
 Alpha virt. eigenvalues --    2.66528   2.66530   2.66694   2.67856   2.67856
 Alpha virt. eigenvalues --    2.74069   2.74686   2.74686   2.80111   2.80374
 Alpha virt. eigenvalues --    2.80375   2.83944   2.84020   2.84021   2.84447
 Alpha virt. eigenvalues --    2.84448   2.89630   3.00318   3.08931   3.08933
 Alpha virt. eigenvalues --    3.09154   3.09161   3.13162   3.13164   3.14606
 Alpha virt. eigenvalues --    3.14608   3.18417   3.21848   3.21852   3.24179
 Alpha virt. eigenvalues --    3.25996   3.25998   3.30557   3.34986   3.37609
 Alpha virt. eigenvalues --    3.37609   3.38626   3.43959   3.43963   3.49288
 Alpha virt. eigenvalues --    3.50598   3.53318   3.53318   3.60621   3.63504
 Alpha virt. eigenvalues --    3.63505   3.76280   3.76602   3.76604   3.79949
 Alpha virt. eigenvalues --    3.85169   3.99435   3.99436   4.07617   4.07935
 Alpha virt. eigenvalues --    4.07936   4.11831   4.20381   4.21264   4.21264
 Alpha virt. eigenvalues --    4.23477   4.23479   4.29964   4.29965   4.30635
 Alpha virt. eigenvalues --    4.30635   4.63978   4.63980   4.64434   4.66809
 Alpha virt. eigenvalues --    4.83297   4.83297   4.89133   4.89137   5.22225
 Alpha virt. eigenvalues --    5.22225   5.27429   5.29571   5.42934   5.60691
 Alpha virt. eigenvalues --   21.83651  22.54952  22.54952  22.65064  22.65064
 Alpha virt. eigenvalues --   23.07666
          Condensed to atoms (all electrons):
              1          2          3          4          5          6
     1  C    4.860286   0.417931  -0.043357  -0.001640   0.510834  -0.046204
     2  H    0.417931   0.566206  -0.001640   0.000092  -0.046291  -0.007167
     3  C   -0.043357  -0.001640   4.860286   0.417931  -0.035738   0.008554
     4  H   -0.001640   0.000092   0.417931   0.566206   0.008576  -0.000301
     5  C    0.510834  -0.046291  -0.035738   0.008576   4.859949   0.417783
     6  H   -0.046204  -0.007167   0.008554  -0.000301   0.417783   0.566152
     7  C    0.510834  -0.046291  -0.035738   0.008576  -0.035742   0.008558
     8  H   -0.046204  -0.007167   0.008554  -0.000301   0.008558  -0.000301
     9  C   -0.035738   0.008576   0.510834  -0.046291   0.510920  -0.046200
    10  H    0.008554  -0.000301  -0.046204  -0.007167  -0.046200  -0.007158
    11  C   -0.035738   0.008576   0.510834  -0.046291  -0.043359  -0.001633
    12  H    0.008554  -0.000301  -0.046204  -0.007167  -0.001633   0.000092
              7          8          9         10         11         12
     1  C    0.510834  -0.046204  -0.035738   0.008554  -0.035738   0.008554
     2  H   -0.046291  -0.007167   0.008576  -0.000301   0.008576  -0.000301
     3  C   -0.035738   0.008554   0.510834  -0.046204   0.510834  -0.046204
     4  H    0.008576  -0.000301  -0.046291  -0.007167  -0.046291  -0.007167
     5  C   -0.035742   0.008558   0.510920  -0.046200  -0.043359  -0.001633
     6  H    0.008558  -0.000301  -0.046200  -0.007158  -0.001633   0.000092
     7  C    4.859949   0.417783  -0.043359  -0.001633   0.510920  -0.046200
     8  H    0.417783   0.566151  -0.001633   0.000092  -0.046200  -0.007158
     9  C   -0.043359  -0.001633   4.859949   0.417783  -0.035742   0.008558
    10  H   -0.001633   0.000092   0.417783   0.566151   0.008558  -0.000301
    11  C    0.510920  -0.046200  -0.035742   0.008558   4.859949   0.417783
    12  H   -0.046200  -0.007158   0.008558  -0.000301   0.417783   0.566152
 Mulliken atomic charges:
              1
     1  C   -0.108111
     2  H    0.107776
     3  C   -0.108111
     4  H    0.107776
     5  C   -0.107656
     6  H    0.107824
     7  C   -0.107656
     8  H    0.107824
     9  C   -0.107656
    10  H    0.107824
    11  C   -0.107656
    12  H    0.107824
 Sum of Mulliken atomic charges =   0.00000
 Mulliken charges with hydrogens summed into heavy atoms:
              1
     1  C   -0.000335
     3  C   -0.000335
     5  C    0.000167
     7  C    0.000167
     9  C    0.000167
    11  C    0.000167
 Sum of Mulliken charges with hydrogens summed into heavy atoms =   0.00000
 APT atomic charges:
              1
     1  C   -0.491350
     2  H    0.490767
     3  C   -0.491350
     4  H    0.490767
     5  C   -0.490504
     6  H    0.490796
     7  C   -0.490504
     8  H    0.490796
     9  C   -0.490504
    10  H    0.490796
    11  C   -0.490504
    12  H    0.490796
 Sum of APT charges=   0.00000
 APT Atomic charges with hydrogens summed into heavy atoms:
              1
     1  C   -0.000584
     2  H    0.000000
     3  C   -0.000584
     4  H    0.000000
     5  C    0.000292
     6  H    0.000000
     7  C    0.000292
     8  H    0.000000
     9  C    0.000292
    10  H    0.000000
    11  C    0.000292
    12  H    0.000000
 Sum of APT charges=   0.00000
 Electronic spatial extent (au):  <R**2>=            454.8134
 Charge=              0.0000 electrons
 Dipole moment (field-independent basis, Debye):
    X=              0.0000    Y=              0.0000    Z=              0.0000  Tot=              0.0000
 Quadrupole moment (field-independent basis, Debye-Ang):
   XX=            -32.1845   YY=            -32.1845   ZZ=            -39.7829
   XY=              0.0000   XZ=              0.0000   YZ=              0.0000
 Traceless Quadrupole moment (field-independent basis, Debye-Ang):
   XX=              2.5328   YY=              2.5328   ZZ=             -5.0656
   XY=              0.0000   XZ=              0.0000   YZ=              0.0000
 Octapole moment (field-independent basis, Debye-Ang**2):
  XXX=              0.0000  YYY=              0.0000  ZZZ=              0.0000  XYY=              0.0000
  XXY=              0.0000  XXZ=              0.0000  XZZ=              0.0000  YZZ=              0.0000
  YYZ=              0.0000  XYZ=              0.0000
 Hexadecapole moment (field-independent basis, Debye-Ang**3):
 XXXX=           -273.6613 YYYY=           -273.6618 ZZZZ=            -47.8645 XXXY=              0.0000
 XXXZ=              0.0000 YYYX=              0.0000 YYYZ=              0.0000 ZZZX=              0.0000
 ZZZY=              0.0000 XXYY=            -91.2190 XXZZ=            -63.5575 YYZZ=            -63.5569
 XXYZ=              0.0000 YYXZ=              0.0000 ZZXY=              0.0000
 N-N= 2.046767178891D+02 E-N=-9.478786284299D+02  KE= 2.311651174841D+02
  Exact polarizability:   0.000   0.000   0.000   0.000   0.000   0.000
 Approx polarizability: 127.452   0.000 127.449   0.000   0.000  59.592
 No NMR shielding tensors so no spin-rotation constants.
 Leave Link  601 at Mon Jan 18 15:54:37 2016, MaxMem=  134217728 cpu:       0.2
 (Enter /apps/Gausian/g09/l701.exe)
 Compute integral second derivatives.
 ... and contract with generalized density number  0.
   1 Symmetry operations used in ECPInt.
 ECPInt:  NShTT=    4095 NPrTT=   12396 LenC2=    4075 LenP2D=   10437.
 LDataN:  DoStor=T MaxTD1= 8 Len=  415
 Leave Link  701 at Mon Jan 18 15:54:38 2016, MaxMem=  134217728 cpu:       0.4
 (Enter /apps/Gausian/g09/l702.exe)
 L702 exits ... SP integral derivatives will be done elsewhere.
 Leave Link  702 at Mon Jan 18 15:54:38 2016, MaxMem=  134217728 cpu:       0.0
 (Enter /apps/Gausian/g09/l703.exe)
 Compute integral second derivatives, UseDBF=F ICtDFT=           0.
 Integral derivatives from FoFDir, PRISM(SPDF).
 Calling FoFJK, ICntrl=    100147 FMM=F ISym2X=0 I1Cent= 0 IOpClX= 0 NMat=1 NMatS=1 NMatT=0.
 FoFCou: FMM=F IPFlag=           0 FMFlag=      100000 FMFlg1=         800
         NFxFlg=           0 DoJE=F BraDBF=F KetDBF=F FulRan=T
         Omega=  0.000000  0.000000  1.000000  0.000000  0.000000 ICntrl=  100147 IOpCl=  0
         NMat0=    1 NMatS0=    1 NMatT0=    0 NMatD0=    1 NMtDS0=    0 NMtDT0=    0
         I1Cent=           0 NGrid=           0.
 Symmetry not used in FoFCou.
 Leave Link  703 at Mon Jan 18 15:59:46 2016, MaxMem=  134217728 cpu:     273.3
 (Enter /apps/Gausian/g09/l716.exe)
 Dipole        =-1.32239645D-07-8.64908434D-09-2.52736396D-15
 Polarizability= 0.00000000D+00 0.00000000D+00 0.00000000D+00
                 0.00000000D+00 0.00000000D+00 0.00000000D+00
 -------------------------------------------------------------------
 Center     Atomic                   Forces (Hartrees/Bohr)
 Number     Number              X              Y              Z
 -------------------------------------------------------------------
      1        6           0.009594023   -0.000000001    0.000000000
      2        1          -0.003235115    0.000000000    0.000000000
      3        6          -0.009594023    0.000000005    0.000000000
      4        1           0.003235093    0.000000000    0.000000000
      5        6           0.004811939    0.008288842    0.000000000
      6        1          -0.001615794   -0.002798689    0.000000000
      7        6           0.004811940   -0.008288839    0.000000000
      8        1          -0.001615794    0.002798689    0.000000000
      9        6          -0.004811926    0.008288838    0.000000000
     10        1           0.001615790   -0.002798684    0.000000000
     11        6          -0.004811926   -0.008288850    0.000000000
     12        1           0.001615793    0.002798689    0.000000000
 -------------------------------------------------------------------
 Cartesian Forces:  Max     0.009594023 RMS     0.004130626
 Force constants in Cartesian coordinates: 
                1             2             3             4             5 
      1  0.734192D+00
      2  0.000000D+00  0.681993D+00
      3  0.000000D+00  0.000000D+00  0.129591D+00
      4 -0.323580D+00  0.000000D+00  0.000000D+00  0.345817D+00
      5  0.000000D+00 -0.612006D-01  0.000000D+00  0.000000D+00  0.600027D-01
      6  0.000000D+00  0.000000D+00 -0.369178D-01  0.000000D+00  0.000000D+00
      7 -0.674277D-03  0.000000D+00  0.000000D+00  0.764341D-03  0.000000D+00
      8  0.000000D+00 -0.699182D-01  0.000000D+00  0.000000D+00 -0.131626D-02
      9  0.000000D+00  0.000000D+00 -0.787541D-02  0.000000D+00  0.000000D+00
     10  0.764371D-03  0.000000D+00  0.000000D+00 -0.753120D-04  0.000000D+00
     11  0.000000D+00 -0.131627D-02  0.000000D+00  0.000000D+00  0.142387D-03
     12  0.000000D+00  0.000000D+00 -0.563979D-03  0.000000D+00  0.000000D+00
     13 -0.182895D+00  0.616289D-01  0.000000D+00 -0.123893D-01  0.288359D-01
     14  0.125972D+00 -0.291370D+00  0.000000D+00 -0.234677D-02  0.461014D-02
     15  0.000000D+00  0.000000D+00 -0.592226D-01  0.000000D+00  0.000000D+00
     16  0.118293D-01  0.148513D-01  0.000000D+00  0.910000D-03 -0.511296D-03
     17 -0.163347D-01 -0.196106D-01  0.000000D+00  0.278544D-03  0.104568D-02
     18  0.000000D+00  0.000000D+00  0.213387D-02  0.000000D+00  0.000000D+00
     19 -0.182895D+00 -0.616289D-01  0.000000D+00 -0.123893D-01 -0.288359D-01
     20 -0.125972D+00 -0.291370D+00  0.000000D+00  0.234677D-02  0.461014D-02
     21  0.000000D+00  0.000000D+00 -0.592226D-01  0.000000D+00  0.000000D+00
     22  0.118293D-01 -0.148514D-01  0.000000D+00  0.909994D-03  0.511295D-03
     23  0.163348D-01 -0.196106D-01  0.000000D+00 -0.278544D-03  0.104568D-02
     24  0.000000D+00  0.000000D+00  0.213386D-02  0.000000D+00  0.000000D+00
     25 -0.286229D-01  0.784593D-01  0.000000D+00  0.703506D-03  0.236976D-02
     26  0.304935D-01  0.343104D-01  0.000000D+00  0.336279D-02 -0.447198D-02
     27  0.000000D+00  0.000000D+00  0.753722D-02  0.000000D+00  0.000000D+00
     28 -0.566297D-02 -0.129792D-02  0.000000D+00 -0.687538D-03  0.138694D-02
     29 -0.308870D-03  0.189077D-02  0.000000D+00 -0.193510D-03  0.203873D-05
     30  0.000000D+00  0.000000D+00  0.743430D-02  0.000000D+00  0.000000D+00
     31 -0.286229D-01 -0.784593D-01  0.000000D+00  0.703554D-03 -0.236975D-02
     32 -0.304935D-01  0.343104D-01  0.000000D+00 -0.336276D-02 -0.447197D-02
     33  0.000000D+00  0.000000D+00  0.753729D-02  0.000000D+00  0.000000D+00
     34 -0.566297D-02  0.129795D-02  0.000000D+00 -0.687552D-03 -0.138694D-02
     35  0.308858D-03  0.189083D-02  0.000000D+00  0.193498D-03  0.203336D-05
     36  0.000000D+00  0.000000D+00  0.743438D-02  0.000000D+00  0.000000D+00
                6             7             8             9            10 
      6  0.267082D-01
      7  0.000000D+00  0.734192D+00
      8  0.000000D+00  0.000000D+00  0.681993D+00
      9 -0.563992D-03  0.000000D+00  0.000000D+00  0.129592D+00
     10  0.000000D+00 -0.323580D+00  0.000000D+00  0.000000D+00  0.345817D+00
     11  0.000000D+00  0.000000D+00 -0.612006D-01  0.000000D+00  0.000000D+00
     12 -0.135771D-02  0.000000D+00  0.000000D+00 -0.369178D-01  0.000000D+00
     13  0.000000D+00 -0.286229D-01 -0.784593D-01  0.000000D+00  0.703424D-03
     14  0.000000D+00 -0.304935D-01  0.343104D-01  0.000000D+00 -0.336274D-02
     15  0.211521D-02  0.000000D+00  0.000000D+00  0.753725D-02  0.000000D+00
     16  0.000000D+00 -0.566297D-02  0.129794D-02  0.000000D+00 -0.687548D-03
     17  0.000000D+00  0.308873D-03  0.189084D-02  0.000000D+00  0.193496D-03
     18 -0.372202D-02  0.000000D+00  0.000000D+00  0.743436D-02  0.000000D+00
     19  0.000000D+00 -0.286229D-01  0.784593D-01  0.000000D+00  0.703506D-03
     20  0.000000D+00  0.304935D-01  0.343104D-01  0.000000D+00  0.336277D-02
     21  0.211520D-02  0.000000D+00  0.000000D+00  0.753731D-02  0.000000D+00
     22  0.000000D+00 -0.566297D-02 -0.129795D-02  0.000000D+00 -0.687552D-03
     23  0.000000D+00 -0.308878D-03  0.189079D-02  0.000000D+00 -0.193503D-03
     24 -0.372202D-02  0.000000D+00  0.000000D+00  0.743435D-02  0.000000D+00
     25  0.000000D+00 -0.182895D+00 -0.616289D-01  0.000000D+00 -0.123892D-01
     26  0.000000D+00 -0.125972D+00 -0.291370D+00  0.000000D+00  0.234681D-02
     27  0.743023D-02  0.000000D+00  0.000000D+00 -0.592227D-01  0.000000D+00
     28  0.000000D+00  0.118293D-01 -0.148513D-01  0.000000D+00  0.909996D-03
     29  0.000000D+00  0.163347D-01 -0.196106D-01  0.000000D+00 -0.278564D-03
     30  0.242200D-03  0.000000D+00  0.000000D+00  0.213392D-02  0.000000D+00
     31  0.000000D+00 -0.182895D+00  0.616289D-01  0.000000D+00 -0.123892D-01
     32  0.000000D+00  0.125972D+00 -0.291370D+00  0.000000D+00 -0.234681D-02
     33  0.743023D-02  0.000000D+00  0.000000D+00 -0.592227D-01  0.000000D+00
     34  0.000000D+00  0.118293D-01  0.148514D-01  0.000000D+00  0.909997D-03
     35  0.000000D+00 -0.163347D-01 -0.196106D-01  0.000000D+00  0.278578D-03
     36  0.242205D-03  0.000000D+00  0.000000D+00  0.213383D-02  0.000000D+00
               11            12            13            14            15 
     11  0.600027D-01
     12  0.000000D+00  0.267082D-01
     13 -0.236976D-02  0.000000D+00  0.694922D+00
     14 -0.447197D-02  0.000000D+00  0.226345D-01  0.721464D+00
     15  0.000000D+00  0.743022D-02  0.000000D+00  0.000000D+00  0.129464D+00
     16 -0.138694D-02  0.000000D+00 -0.126806D+00 -0.113585D+00  0.000000D+00
     17  0.203152D-05  0.000000D+00 -0.113566D+00 -0.258034D+00  0.000000D+00
     18  0.000000D+00  0.242199D-03  0.000000D+00  0.000000D+00 -0.367306D-01
     19  0.236975D-02  0.000000D+00  0.658130D-01 -0.239469D-01  0.000000D+00
     20 -0.447197D-02  0.000000D+00  0.239469D-01 -0.598896D-01  0.000000D+00
     21  0.000000D+00  0.743022D-02  0.000000D+00  0.000000D+00  0.749426D-02
     22  0.138694D-02  0.000000D+00 -0.691368D-03 -0.318187D-02  0.000000D+00
     23  0.203639D-05  0.000000D+00 -0.417187D-02 -0.307225D-02  0.000000D+00
     24  0.000000D+00  0.242202D-03  0.000000D+00  0.000000D+00  0.743534D-02
     25 -0.288359D-01  0.000000D+00 -0.345591D+00 -0.321928D-01  0.000000D+00
     26  0.461015D-02  0.000000D+00  0.321927D-01 -0.128984D+00  0.000000D+00
     27  0.000000D+00  0.211522D-02  0.000000D+00  0.000000D+00 -0.592594D-01
     28  0.511297D-03  0.000000D+00 -0.111204D-01  0.295651D-01  0.000000D+00
     29  0.104568D-02  0.000000D+00 -0.160716D-02  0.332788D-02  0.000000D+00
     30  0.000000D+00 -0.372201D-02  0.000000D+00  0.000000D+00  0.214977D-02
     31  0.288359D-01  0.000000D+00 -0.525246D-01  0.300349D-01  0.000000D+00
     32  0.461013D-02  0.000000D+00  0.300349D-01 -0.181385D-01  0.000000D+00
     33  0.000000D+00  0.211521D-02  0.000000D+00  0.000000D+00 -0.784789D-02
     34 -0.511294D-03  0.000000D+00 -0.798297D-03  0.903226D-03  0.000000D+00
     35  0.104569D-02  0.000000D+00  0.900054D-03  0.247582D-03  0.000000D+00
     36  0.000000D+00 -0.372201D-02  0.000000D+00  0.000000D+00 -0.565223D-03
               16            17            18            19            20 
     16  0.131467D+00
     17  0.123721D+00  0.274412D+00
     18  0.000000D+00  0.000000D+00  0.264767D-01
     19 -0.691333D-03  0.417186D-02  0.000000D+00  0.694922D+00
     20  0.318190D-02 -0.307224D-02  0.000000D+00 -0.226345D-01  0.721464D+00
     21  0.000000D+00  0.000000D+00  0.743535D-02  0.000000D+00  0.000000D+00
     22  0.346286D-03 -0.790226D-03  0.000000D+00 -0.126806D+00  0.113585D+00
     23  0.790223D-03 -0.103173D-02  0.000000D+00  0.113566D+00 -0.258034D+00
     24  0.000000D+00  0.000000D+00  0.243482D-03  0.000000D+00  0.000000D+00
     25 -0.111204D-01  0.160717D-02  0.000000D+00 -0.525247D-01 -0.300349D-01
     26 -0.295651D-01  0.332784D-02  0.000000D+00 -0.300349D-01 -0.181385D-01
     27  0.000000D+00  0.000000D+00  0.214972D-02  0.000000D+00  0.000000D+00
     28  0.112639D-02 -0.396310D-03  0.000000D+00 -0.798335D-03 -0.903256D-03
     29  0.396304D-03  0.843526D-03  0.000000D+00 -0.900013D-03  0.247619D-03
     30  0.000000D+00  0.000000D+00 -0.374109D-02  0.000000D+00  0.000000D+00
     31 -0.798308D-03  0.900027D-03  0.000000D+00 -0.345591D+00  0.321927D-01
     32  0.903217D-03  0.247575D-03  0.000000D+00 -0.321929D-01 -0.128984D+00
     33  0.000000D+00  0.000000D+00 -0.565204D-03  0.000000D+00  0.000000D+00
     34  0.882350D-04 -0.943275D-04  0.000000D+00 -0.111204D-01 -0.295651D-01
     35 -0.943238D-04 -0.206439D-04  0.000000D+00  0.160721D-02  0.332791D-02
     36  0.000000D+00  0.000000D+00 -0.135679D-02  0.000000D+00  0.000000D+00
               21            22            23            24            25 
     21  0.129464D+00
     22  0.000000D+00  0.131467D+00
     23  0.000000D+00 -0.123721D+00  0.274412D+00
     24 -0.367305D-01  0.000000D+00  0.000000D+00  0.264767D-01
     25  0.000000D+00 -0.798311D-03 -0.900015D-03  0.000000D+00  0.694922D+00
     26  0.000000D+00 -0.903235D-03  0.247601D-03  0.000000D+00 -0.226346D-01
     27 -0.784789D-02  0.000000D+00  0.000000D+00 -0.565188D-03  0.000000D+00
     28  0.000000D+00  0.882400D-04  0.943275D-04  0.000000D+00 -0.126806D+00
     29  0.000000D+00  0.943287D-04 -0.206430D-04  0.000000D+00  0.113566D+00
     30 -0.565197D-03  0.000000D+00  0.000000D+00 -0.135678D-02  0.000000D+00
     31  0.000000D+00 -0.111204D-01 -0.160716D-02  0.000000D+00  0.658130D-01
     32  0.000000D+00  0.295651D-01  0.332790D-02  0.000000D+00 -0.239469D-01
     33 -0.592595D-01  0.000000D+00  0.000000D+00  0.214970D-02  0.000000D+00
     34  0.000000D+00  0.112638D-02  0.396310D-03  0.000000D+00 -0.691366D-03
     35  0.000000D+00 -0.396311D-03  0.843520D-03  0.000000D+00  0.417180D-02
     36  0.214972D-02  0.000000D+00  0.000000D+00 -0.374111D-02  0.000000D+00
               26            27            28            29            30 
     26  0.721464D+00
     27  0.000000D+00  0.129464D+00
     28  0.113585D+00  0.000000D+00  0.131467D+00
     29 -0.258034D+00  0.000000D+00 -0.123722D+00  0.274412D+00
     30  0.000000D+00 -0.367306D-01  0.000000D+00  0.000000D+00  0.264767D-01
     31  0.239469D-01  0.000000D+00 -0.691310D-03 -0.417187D-02  0.000000D+00
     32 -0.598896D-01  0.000000D+00 -0.318190D-02 -0.307228D-02  0.000000D+00
     33  0.000000D+00  0.749433D-02  0.000000D+00  0.000000D+00  0.743536D-02
     34  0.318187D-02  0.000000D+00  0.346288D-03  0.790226D-03  0.000000D+00
     35 -0.307228D-02  0.000000D+00 -0.790215D-03 -0.103171D-02  0.000000D+00
     36  0.000000D+00  0.743537D-02  0.000000D+00  0.000000D+00  0.243500D-03
               31            32            33            34            35 
     31  0.694922D+00
     32  0.226347D-01  0.721464D+00
     33  0.000000D+00  0.000000D+00  0.129464D+00
     34 -0.126806D+00 -0.113585D+00  0.000000D+00  0.131467D+00
     35 -0.113566D+00 -0.258034D+00  0.000000D+00  0.123721D+00  0.274412D+00
     36  0.000000D+00  0.000000D+00 -0.367305D-01  0.000000D+00  0.000000D+00
               36 
     36  0.264767D-01
 Leave Link  716 at Mon Jan 18 15:59:46 2016, MaxMem=  134217728 cpu:       0.0
 (Enter /apps/Gausian/g09/l103.exe)

 GradGradGradGradGradGradGradGradGradGradGradGradGradGradGradGradGradGrad
 Berny optimization.
 Search for a local minimum.
 Step number   1 out of a maximum of  100
 All quantities printed in internal units (Hartrees-Bohrs-Radians)
 Second derivative matrix not updated -- analytic derivatives used.
 The second derivative matrix:
                          X1        Y1        Z1        X2        Y2
           X1           0.73419
           Y1           0.00000   0.68199
           Z1           0.00000   0.00000   0.12959
           X2          -0.32358   0.00000   0.00000   0.34582
           Y2           0.00000  -0.06120   0.00000   0.00000   0.06000
           Z2           0.00000   0.00000  -0.03692   0.00000   0.00000
           X3          -0.00067   0.00000   0.00000   0.00076   0.00000
           Y3           0.00000  -0.06992   0.00000   0.00000  -0.00132
           Z3           0.00000   0.00000  -0.00788   0.00000   0.00000
           X4           0.00076   0.00000   0.00000  -0.00008   0.00000
           Y4           0.00000  -0.00132   0.00000   0.00000   0.00014
           Z4           0.00000   0.00000  -0.00056   0.00000   0.00000
           X5          -0.18289   0.06163   0.00000  -0.01239   0.02884
           Y5           0.12597  -0.29137   0.00000  -0.00235   0.00461
           Z5           0.00000   0.00000  -0.05922   0.00000   0.00000
           X6           0.01183   0.01485   0.00000   0.00091  -0.00051
           Y6          -0.01633  -0.01961   0.00000   0.00028   0.00105
           Z6           0.00000   0.00000   0.00213   0.00000   0.00000
           X7          -0.18289  -0.06163   0.00000  -0.01239  -0.02884
           Y7          -0.12597  -0.29137   0.00000   0.00235   0.00461
           Z7           0.00000   0.00000  -0.05922   0.00000   0.00000
           X8           0.01183  -0.01485   0.00000   0.00091   0.00051
           Y8           0.01633  -0.01961   0.00000  -0.00028   0.00105
           Z8           0.00000   0.00000   0.00213   0.00000   0.00000
           X9          -0.02862   0.07846   0.00000   0.00070   0.00237
           Y9           0.03049   0.03431   0.00000   0.00336  -0.00447
           Z9           0.00000   0.00000   0.00754   0.00000   0.00000
           X10         -0.00566  -0.00130   0.00000  -0.00069   0.00139
           Y10         -0.00031   0.00189   0.00000  -0.00019   0.00000
           Z10          0.00000   0.00000   0.00743   0.00000   0.00000
           X11         -0.02862  -0.07846   0.00000   0.00070  -0.00237
           Y11         -0.03049   0.03431   0.00000  -0.00336  -0.00447
           Z11          0.00000   0.00000   0.00754   0.00000   0.00000
           X12         -0.00566   0.00130   0.00000  -0.00069  -0.00139
           Y12          0.00031   0.00189   0.00000   0.00019   0.00000
           Z12          0.00000   0.00000   0.00743   0.00000   0.00000
                          Z2        X3        Y3        Z3        X4
           Z2           0.02671
           X3           0.00000   0.73419
           Y3           0.00000   0.00000   0.68199
           Z3          -0.00056   0.00000   0.00000   0.12959
           X4           0.00000  -0.32358   0.00000   0.00000   0.34582
           Y4           0.00000   0.00000  -0.06120   0.00000   0.00000
           Z4          -0.00136   0.00000   0.00000  -0.03692   0.00000
           X5           0.00000  -0.02862  -0.07846   0.00000   0.00070
           Y5           0.00000  -0.03049   0.03431   0.00000  -0.00336
           Z5           0.00212   0.00000   0.00000   0.00754   0.00000
           X6           0.00000  -0.00566   0.00130   0.00000  -0.00069
           Y6           0.00000   0.00031   0.00189   0.00000   0.00019
           Z6          -0.00372   0.00000   0.00000   0.00743   0.00000
           X7           0.00000  -0.02862   0.07846   0.00000   0.00070
           Y7           0.00000   0.03049   0.03431   0.00000   0.00336
           Z7           0.00212   0.00000   0.00000   0.00754   0.00000
           X8           0.00000  -0.00566  -0.00130   0.00000  -0.00069
           Y8           0.00000  -0.00031   0.00189   0.00000  -0.00019
           Z8          -0.00372   0.00000   0.00000   0.00743   0.00000
           X9           0.00000  -0.18289  -0.06163   0.00000  -0.01239
           Y9           0.00000  -0.12597  -0.29137   0.00000   0.00235
           Z9           0.00743   0.00000   0.00000  -0.05922   0.00000
           X10          0.00000   0.01183  -0.01485   0.00000   0.00091
           Y10          0.00000   0.01633  -0.01961   0.00000  -0.00028
           Z10          0.00024   0.00000   0.00000   0.00213   0.00000
           X11          0.00000  -0.18289   0.06163   0.00000  -0.01239
           Y11          0.00000   0.12597  -0.29137   0.00000  -0.00235
           Z11          0.00743   0.00000   0.00000  -0.05922   0.00000
           X12          0.00000   0.01183   0.01485   0.00000   0.00091
           Y12          0.00000  -0.01633  -0.01961   0.00000   0.00028
           Z12          0.00024   0.00000   0.00000   0.00213   0.00000
                          Y4        Z4        X5        Y5        Z5
           Y4           0.06000
           Z4           0.00000   0.02671
           X5          -0.00237   0.00000   0.69492
           Y5          -0.00447   0.00000   0.02263   0.72146
           Z5           0.00000   0.00743   0.00000   0.00000   0.12946
           X6          -0.00139   0.00000  -0.12681  -0.11358   0.00000
           Y6           0.00000   0.00000  -0.11357  -0.25803   0.00000
           Z6           0.00000   0.00024   0.00000   0.00000  -0.03673
           X7           0.00237   0.00000   0.06581  -0.02395   0.00000
           Y7          -0.00447   0.00000   0.02395  -0.05989   0.00000
           Z7           0.00000   0.00743   0.00000   0.00000   0.00749
           X8           0.00139   0.00000  -0.00069  -0.00318   0.00000
           Y8           0.00000   0.00000  -0.00417  -0.00307   0.00000
           Z8           0.00000   0.00024   0.00000   0.00000   0.00744
           X9          -0.02884   0.00000  -0.34559  -0.03219   0.00000
           Y9           0.00461   0.00000   0.03219  -0.12898   0.00000
           Z9           0.00000   0.00212   0.00000   0.00000  -0.05926
           X10          0.00051   0.00000  -0.01112   0.02957   0.00000
           Y10          0.00105   0.00000  -0.00161   0.00333   0.00000
           Z10          0.00000  -0.00372   0.00000   0.00000   0.00215
           X11          0.02884   0.00000  -0.05252   0.03003   0.00000
           Y11          0.00461   0.00000   0.03003  -0.01814   0.00000
           Z11          0.00000   0.00212   0.00000   0.00000  -0.00785
           X12         -0.00051   0.00000  -0.00080   0.00090   0.00000
           Y12          0.00105   0.00000   0.00090   0.00025   0.00000
           Z12          0.00000  -0.00372   0.00000   0.00000  -0.00057
                          X6        Y6        Z6        X7        Y7
           X6           0.13147
           Y6           0.12372   0.27441
           Z6           0.00000   0.00000   0.02648
           X7          -0.00069   0.00417   0.00000   0.69492
           Y7           0.00318  -0.00307   0.00000  -0.02263   0.72146
           Z7           0.00000   0.00000   0.00744   0.00000   0.00000
           X8           0.00035  -0.00079   0.00000  -0.12681   0.11358
           Y8           0.00079  -0.00103   0.00000   0.11357  -0.25803
           Z8           0.00000   0.00000   0.00024   0.00000   0.00000
           X9          -0.01112   0.00161   0.00000  -0.05252  -0.03003
           Y9          -0.02957   0.00333   0.00000  -0.03003  -0.01814
           Z9           0.00000   0.00000   0.00215   0.00000   0.00000
           X10          0.00113  -0.00040   0.00000  -0.00080  -0.00090
           Y10          0.00040   0.00084   0.00000  -0.00090   0.00025
           Z10          0.00000   0.00000  -0.00374   0.00000   0.00000
           X11         -0.00080   0.00090   0.00000  -0.34559   0.03219
           Y11          0.00090   0.00025   0.00000  -0.03219  -0.12898
           Z11          0.00000   0.00000  -0.00057   0.00000   0.00000
           X12          0.00009  -0.00009   0.00000  -0.01112  -0.02957
           Y12         -0.00009  -0.00002   0.00000   0.00161   0.00333
           Z12          0.00000   0.00000  -0.00136   0.00000   0.00000
                          Z7        X8        Y8        Z8        X9
           Z7           0.12946
           X8           0.00000   0.13147
           Y8           0.00000  -0.12372   0.27441
           Z8          -0.03673   0.00000   0.00000   0.02648
           X9           0.00000  -0.00080  -0.00090   0.00000   0.69492
           Y9           0.00000  -0.00090   0.00025   0.00000  -0.02263
           Z9          -0.00785   0.00000   0.00000  -0.00057   0.00000
           X10          0.00000   0.00009   0.00009   0.00000  -0.12681
           Y10          0.00000   0.00009  -0.00002   0.00000   0.11357
           Z10         -0.00057   0.00000   0.00000  -0.00136   0.00000
           X11          0.00000  -0.01112  -0.00161   0.00000   0.06581
           Y11          0.00000   0.02957   0.00333   0.00000  -0.02395
           Z11         -0.05926   0.00000   0.00000   0.00215   0.00000
           X12          0.00000   0.00113   0.00040   0.00000  -0.00069
           Y12          0.00000  -0.00040   0.00084   0.00000   0.00417
           Z12          0.00215   0.00000   0.00000  -0.00374   0.00000
                          Y9        Z9        X10       Y10       Z10
           Y9           0.72146
           Z9           0.00000   0.12946
           X10          0.11358   0.00000   0.13147
           Y10         -0.25803   0.00000  -0.12372   0.27441
           Z10          0.00000  -0.03673   0.00000   0.00000   0.02648
           X11          0.02395   0.00000  -0.00069  -0.00417   0.00000
           Y11         -0.05989   0.00000  -0.00318  -0.00307   0.00000
           Z11          0.00000   0.00749   0.00000   0.00000   0.00744
           X12          0.00318   0.00000   0.00035   0.00079   0.00000
           Y12         -0.00307   0.00000  -0.00079  -0.00103   0.00000
           Z12          0.00000   0.00744   0.00000   0.00000   0.00024
                          X11       Y11       Z11       X12       Y12
           X11          0.69492
           Y11          0.02263   0.72146
           Z11          0.00000   0.00000   0.12946
           X12         -0.12681  -0.11358   0.00000   0.13147
           Y12         -0.11357  -0.25803   0.00000   0.12372   0.27441
           Z12          0.00000   0.00000  -0.03673   0.00000   0.00000
                          Z12
           Z12          0.02648
 ITU=  0
 OrtVCM:  Ph=1 IPass= 1 DotMx1= 0.00D+00
 OrtVCM:  IS=    1 I=    1 IndO=    1 Dot= 1.00D+00 DotN= 1.00D+00 ElMax1= 3.78D-01 ElMax1N= 3.78D-01
 OrtVCM:  Ph=2 NNew=    0 IAdd=    2 IPass= 1 DotMx2= 0.00D+00
 OrtVCM:  IS=    1 I=    2 IndO=    2 Dot= 1.00D+00 DotN= 1.00D+00 ElMax1= 3.78D-01 ElMax1N= 3.78D-01
 OrtVCM:  Ph=2 NNew=    0 IAdd=    3 IPass= 1 DotMx2= 0.00D+00
 OrtVCM:  IS=    1 I=    3 IndO=    3 Dot= 1.00D+00 DotN= 1.00D+00 ElMax1= 3.78D-01 ElMax1N= 3.78D-01
 OrtVCM:  Ph=2 NNew=    0 IAdd=    4 IPass= 1 DotMx2= 2.78D-17
 OrtVCM:  IS=    1 I=    4 IndO=    4 Dot= 1.00D+00 DotN= 1.00D+00 ElMax1= 4.04D-01 ElMax1N= 4.04D-01
 OrtVCM:  Ph=2 NNew=    0 IAdd=    5 IPass= 1 DotMx2= 2.78D-17
 OrtVCM:  IS=    1 I=    5 IndO=    5 Dot= 1.00D+00 DotN= 1.00D+00 ElMax1= 4.67D-01 ElMax1N= 4.67D-01
 OrtVCM:  Ph=2 NNew=    0 IAdd=    6 IPass= 1 DotMx2= 5.55D-17
 OrtVCM:  IS=    1 I=    6 IndO=    6 Dot= 1.00D+00 DotN= 1.00D+00 ElMax1= 3.30D-01 ElMax1N= 3.30D-01
 OrtVCM:  Ph=1 IPass= 1 DotMx1= 4.67D-01
 OrtVCM:  Ph=1 IPass= 2 DotMx1= 1.99D-16
 OrtVCM:  IS=    1 I=    1 IndO=    7 Dot= 8.57D-01 DotN= 8.57D-01 ElMax1= 8.57D-01 ElMax1N= 8.57D-01
 OrtVCM:  Ph=2 NNew=    0 IAdd=    2 IPass= 1 DotMx2= 1.21D-10
 OrtVCM:  Ph=2 NNew=    0 IAdd=    2 IPass= 2 DotMx2= 0.00D+00
 OrtVCM:  IS=    1 I=    2 IndO=    8 Dot= 7.48D-01 DotN= 7.48D-01 ElMax1= 7.48D-01 ElMax1N= 7.48D-01
 OrtVCM:  Ph=2 NNew=    0 IAdd=    3 IPass= 1 DotMx2= 0.00D+00
 OrtVCM:  IS=    1 I=    3 IndO=    9 Dot= 6.40D-01 DotN= 6.40D-01 ElMax1= 6.40D-01 ElMax1N= 6.40D-01
 OrtVCM:  Ph=2 NNew=    0 IAdd=    4 IPass= 1 DotMx2= 6.30D-02
 OrtVCM:  Ph=2 NNew=    0 IAdd=    4 IPass= 2 DotMx2= 1.04D-17
 OrtVCM:  IS=    1 I=    4 IndO=   10 Dot= 9.72D-01 DotN= 9.72D-01 ElMax1= 9.72D-01 ElMax1N= 9.72D-01
 OrtVCM:  Ph=2 NNew=    0 IAdd=    5 IPass= 1 DotMx2= 1.59D-01
 OrtVCM:  Ph=2 NNew=    0 IAdd=    5 IPass= 2 DotMx2= 6.94D-17
 OrtVCM:  IS=    1 I=    5 IndO=   11 Dot= 8.93D-01 DotN= 8.93D-01 ElMax1= 8.93D-01 ElMax1N= 8.93D-01
 OrtVCM:  Ph=2 NNew=    0 IAdd=    6 IPass= 1 DotMx2= 2.71D-01
 OrtVCM:  Ph=2 NNew=    0 IAdd=    6 IPass= 2 DotMx2= 1.67D-16
 OrtVCM:  IS=    1 I=    6 IndO=   12 Dot= 7.87D-01 DotN= 7.87D-01 ElMax1= 7.87D-01 ElMax1N= 7.87D-01
 OrtVCM:  Ph=2 NNew=    0 IAdd=    7 IPass= 1 DotMx2= 1.54D-01
 OrtVCM:  Ph=2 NNew=    0 IAdd=    7 IPass= 2 DotMx2= 1.39D-17
 OrtVCM:  IS=    1 I=    7 IndO=   13 Dot= 8.29D-01 DotN= 8.29D-01 ElMax1= 8.29D-01 ElMax1N= 8.29D-01
 OrtVCM:  Ph=2 NNew=    0 IAdd=    8 IPass= 1 DotMx2= 3.93D-02
 OrtVCM:  Ph=2 NNew=    0 IAdd=    8 IPass= 2 DotMx2= 2.08D-17
 OrtVCM:  IS=    1 I=    8 IndO=   14 Dot= 7.47D-01 DotN= 7.47D-01 ElMax1= 7.47D-01 ElMax1N= 7.47D-01
 OrtVCM:  Ph=2 NNew=    0 IAdd=    9 IPass= 1 DotMx2= 1.42D-01
 OrtVCM:  Ph=2 NNew=    0 IAdd=    9 IPass= 2 DotMx2= 5.55D-17
 OrtVCM:  IS=    1 I=    9 IndO=   15 Dot= 6.11D-01 DotN= 6.11D-01 ElMax1= 6.11D-01 ElMax1N= 6.11D-01
 OrtVCM:  Ph=2 NNew=    0 IAdd=   10 IPass= 1 DotMx2= 7.69D-02
 OrtVCM:  Ph=2 NNew=    0 IAdd=   10 IPass= 2 DotMx2= 2.08D-17
 OrtVCM:  IS=    1 I=   10 IndO=   16 Dot= 9.66D-01 DotN= 9.66D-01 ElMax1= 9.66D-01 ElMax1N= 9.66D-01
 OrtVCM:  Ph=2 NNew=    0 IAdd=   11 IPass= 1 DotMx2= 1.59D-01
 OrtVCM:  Ph=2 NNew=    0 IAdd=   11 IPass= 2 DotMx2= 7.63D-17
 OrtVCM:  IS=    1 I=   11 IndO=   17 Dot= 8.91D-01 DotN= 8.91D-01 ElMax1= 8.91D-01 ElMax1N= 8.91D-01
 OrtVCM:  Ph=2 NNew=    0 IAdd=   12 IPass= 1 DotMx2= 3.18D-01
 OrtVCM:  Ph=2 NNew=    0 IAdd=   12 IPass= 2 DotMx2= 8.85D-17
 OrtVCM:  IS=    1 I=   12 IndO=   18 Dot= 7.23D-01 DotN= 7.23D-01 ElMax1= 7.23D-01 ElMax1N= 7.23D-01
 OrtVCM:  Ph=2 NNew=    0 IAdd=   13 IPass= 1 DotMx2= 1.88D-01
 OrtVCM:  Ph=2 NNew=    0 IAdd=   13 IPass= 2 DotMx2= 6.94D-17
 OrtVCM:  IS=    1 I=   13 IndO=   19 Dot= 6.63D-01 DotN= 6.63D-01 ElMax1= 6.63D-01 ElMax1N= 6.63D-01
 OrtVCM:  Ph=2 NNew=    0 IAdd=   14 IPass= 1 DotMx2= 2.28D-01
 OrtVCM:  Ph=2 NNew=    0 IAdd=   14 IPass= 2 DotMx2= 3.21D-17
 OrtVCM:  IS=    1 I=   14 IndO=   20 Dot= 7.37D-01 DotN= 7.37D-01 ElMax1= 7.37D-01 ElMax1N= 7.37D-01
 OrtVCM:  Ph=2 NNew=    0 IAdd=   15 IPass= 1 DotMx2= 3.15D-01
 OrtVCM:  Ph=2 NNew=    0 IAdd=   15 IPass= 2 DotMx2= 1.11D-16
 OrtVCM:  IS=    1 I=   15 IndO=   21 Dot= 4.59D-01 DotN= 4.59D-01 ElMax1= 4.59D-01 ElMax1N= 4.59D-01
 OrtVCM:  Ph=2 NNew=    0 IAdd=   16 IPass= 1 DotMx2= 2.17D-01
 OrtVCM:  Ph=2 NNew=    0 IAdd=   16 IPass= 2 DotMx2= 4.16D-17
 OrtVCM:  IS=    1 I=   16 IndO=   22 Dot= 8.45D-01 DotN= 8.45D-01 ElMax1= 8.45D-01 ElMax1N= 8.45D-01
 OrtVCM:  Ph=2 NNew=    0 IAdd=   17 IPass= 1 DotMx2= 1.43D-01
 OrtVCM:  Ph=2 NNew=    0 IAdd=   17 IPass= 2 DotMx2= 6.94D-17
 OrtVCM:  IS=    1 I=   17 IndO=   23 Dot= 9.13D-01 DotN= 9.13D-01 ElMax1= 9.13D-01 ElMax1N= 9.13D-01
 OrtVCM:  Ph=2 NNew=    0 IAdd=   18 IPass= 1 DotMx2= 4.80D-01
 OrtVCM:  Ph=2 NNew=    0 IAdd=   18 IPass= 2 DotMx2= 1.94D-16
 OrtVCM:  IS=    1 I=   18 IndO=   24 Dot= 5.60D-01 DotN= 5.60D-01 ElMax1= 5.60D-01 ElMax1N= 5.60D-01
 OrtVCM:  Ph=2 NNew=    0 IAdd=   19 IPass= 1 DotMx2= 1.88D-01
 OrtVCM:  Ph=2 NNew=    0 IAdd=   19 IPass= 2 DotMx2= 1.21D-16
 OrtVCM:  IS=    1 I=   19 IndO=   25 Dot= 6.42D-01 DotN= 6.42D-01 ElMax1= 6.42D-01 ElMax1N= 6.42D-01
 OrtVCM:  Ph=2 NNew=    0 IAdd=   20 IPass= 1 DotMx2= 3.06D-01
 OrtVCM:  Ph=2 NNew=    0 IAdd=   20 IPass= 2 DotMx2= 6.94D-17
 OrtVCM:  IS=    1 I=   20 IndO=   26 Dot= 5.87D-01 DotN= 5.87D-01 ElMax1= 5.87D-01 ElMax1N= 5.87D-01
 OrtVCM:  Ph=2 NNew=    0 IAdd=   21 IPass= 1 DotMx2= 3.20D-01
 OrtVCM:  Ph=2 NNew=    0 IAdd=   21 IPass= 2 DotMx2= 1.25D-16
 OrtVCM:  IS=    1 I=   21 IndO=   27 Dot= 2.57D-01 DotN= 2.57D-01 ElMax1= 4.08D-01 ElMax1N= 4.08D-01
 OrtVCM:  Ph=2 NNew=    0 IAdd=   22 IPass= 1 DotMx2= 2.28D-01
 OrtVCM:  Ph=2 NNew=    0 IAdd=   22 IPass= 2 DotMx2= 6.94D-17
 OrtVCM:  IS=    1 I=   22 IndO=   28 Dot= 8.19D-01 DotN= 8.19D-01 ElMax1= 8.19D-01 ElMax1N= 8.19D-01
 OrtVCM:  Ph=2 NNew=    0 IAdd=   23 IPass= 1 DotMx2= 2.59D-01
 OrtVCM:  Ph=2 NNew=    0 IAdd=   23 IPass= 2 DotMx2= 1.39D-16
 OrtVCM:  IS=    1 I=   23 IndO=   29 Dot= 8.19D-01 DotN= 8.19D-01 ElMax1= 8.19D-01 ElMax1N= 8.19D-01
 OrtVCM:  Ph=2 NNew=    0 IAdd=   24 IPass= 1 DotMx2= 8.05D-01
 OrtVCM:  Ph=2 NNew=    0 IAdd=   24 IPass= 2 DotMx2= 7.81D-17
 OrtVCM:  IS=    1 I=   24 IndO=   30 Dot= 1.09D-01 DotN= 1.09D-01 ElMax1= 2.12D-01 ElMax1N= 2.12D-01
 OrtVCM:  Ph=2 NNew=    0 IAdd=   25 IPass= 1 DotMx2= 4.13D-01
 OrtVCM:  Ph=2 NNew=    0 IAdd=   25 IPass= 2 DotMx2= 1.53D-16
 OrtVCM:  IS=    1 I=   25 IndO=   31 Dot= 2.51D-01 DotN= 2.51D-01 ElMax1= 4.08D-01 ElMax1N= 4.08D-01
 OrtVCM:  Ph=2 NNew=    0 IAdd=   26 IPass= 1 DotMx2= 2.97D-01
 OrtVCM:  Ph=2 NNew=    0 IAdd=   26 IPass= 2 DotMx2= 1.70D-16
 OrtVCM:  IS=    1 I=   26 IndO=   32 Dot= 5.68D-01 DotN= 5.68D-01 ElMax1= 5.68D-01 ElMax1N= 5.68D-01
 OrtVCM:  Ph=2 NNew=    0 IAdd=   27 IPass= 1 DotMx2= 3.20D-01
 OrtVCM:  Ph=2 NNew=    0 IAdd=   27 IPass= 2 DotMx2= 8.33D-17
 OrtVCM:  IS=    1 I=   27 IndO=   33 Dot= 1.74D-01 DotN= 1.74D-01 ElMax1= 2.38D-01 ElMax1N= 2.38D-01
 OrtVCM:  Ph=2 NNew=    0 IAdd=   28 IPass= 1 DotMx2= 8.15D-01
 OrtVCM:  Ph=2 NNew=    0 IAdd=   28 IPass= 2 DotMx2= 1.94D-16
 OrtVCM:  IS=    1 I=   28 IndO=   34 Dot= 8.96D-02 DotN= 8.96D-02 ElMax1= 1.96D-01 ElMax1N= 1.96D-01
 OrtVCM:  Ph=2 NNew=    0 IAdd=   29 IPass= 1 DotMx2= 3.52D-01
 OrtVCM:  Ph=2 NNew=    0 IAdd=   29 IPass= 2 DotMx2= 4.86D-17
 OrtVCM:  IS=    1 I=   29 IndO=   35 Dot= 7.37D-01 DotN= 7.37D-01 ElMax1= 7.37D-01 ElMax1N= 7.37D-01
 OrtVCM:  Ph=2 NNew=    0 IAdd=   30 IPass= 1 DotMx2= 6.42D-01
 OrtVCM:  Ph=2 NNew=    0 IAdd=   30 IPass= 2 DotMx2= 2.11D-16
 OrtVCM:  IS=    1 I=   30 IndO=    0 Dot= 1.94D-32 DotN= 1.94D-32 ElMax1= 7.03D-17 ElMax1N= 7.03D-17
 SchOr2:  IPass= 1 Test2A= 1.00D-01 IOff=     0 NDo=    30 NNew=    29
 OrtVCM:  Ph=1 IPass= 1 DotMx1= 4.47D-01
 OrtVCM:  Ph=1 IPass= 2 DotMx1= 4.01D-16
 OrtVCM:  IS=    1 I=    1 IndO=   36 Dot= 3.57D-02 DotN= 3.57D-02 ElMax1= 1.52D-01 ElMax1N= 1.52D-01
 SchOr2:  IPass= 1 Test2A= 1.00D-01 IOff=    30 NDo=     1 NNew=     1
 Eigenvectors of the second derivative matrix:
                           1         2         3         4         5
     Eigenvalues --     0.01476   0.01483   0.03098   0.03309   0.05216
   1         X1         0.00000   0.00000   0.00000   0.00000   0.00012
   2         Y1         0.00000   0.00000   0.00000   0.00000  -0.02904
   3         Z1         0.00000   0.16511  -0.15260  -0.04463   0.00000
   4         X2         0.00000   0.00000   0.00000   0.00000   0.00014
   5         Y2         0.00000   0.00000   0.00000   0.00000   0.54448
   6         Z2         0.00000   0.55086   0.38174  -0.40469   0.00000
   7         X3         0.00000   0.00000   0.00000   0.00000  -0.00012
   8         Y3         0.00000   0.00000   0.00000   0.00000   0.02904
   9         Z3         0.00000   0.16511  -0.15260   0.04463   0.00000
  10         X4         0.00000   0.00000   0.00000   0.00000  -0.00014
  11         Y4         0.00000   0.00000   0.00000   0.00000  -0.54448
  12         Z4         0.00000   0.55086   0.38174   0.40469   0.00000
  13         X5         0.00000   0.00000   0.00000   0.00000  -0.06682
  14         Y5         0.00000   0.00000   0.00000   0.00000  -0.08674
  15         Z5        -0.14172  -0.08091  -0.15515   0.04330   0.00000
  16         X6         0.00000   0.00000   0.00000   0.00000   0.17358
  17         Y6         0.00000   0.00000   0.00000   0.00000  -0.24291
  18         Z6        -0.47949  -0.27947   0.37606   0.40650   0.00000
  19         X7         0.00000   0.00000   0.00000   0.00000   0.06680
  20         Y7         0.00000   0.00000   0.00000   0.00000  -0.08661
  21         Z7         0.14172  -0.08091  -0.15515   0.04330   0.00000
  22         X8         0.00000   0.00000   0.00000   0.00000  -0.17446
  23         Y8         0.00000   0.00000   0.00000   0.00000  -0.24325
  24         Z8         0.47950  -0.27946   0.37606   0.40650   0.00000
  25         X9         0.00000   0.00000   0.00000   0.00000  -0.06680
  26         Y9         0.00000   0.00000   0.00000   0.00000   0.08661
  27         Z9         0.14172  -0.08091  -0.15515  -0.04330   0.00000
  28         X10        0.00000   0.00000   0.00000   0.00000   0.17446
  29         Y10        0.00000   0.00000   0.00000   0.00000   0.24325
  30         Z10        0.47950  -0.27946   0.37606  -0.40650   0.00000
  31         X11        0.00000   0.00000   0.00000   0.00000   0.06682
  32         Y11        0.00000   0.00000   0.00000   0.00000   0.08674
  33         Z11       -0.14172  -0.08091  -0.15515  -0.04330   0.00000
  34         X12        0.00000   0.00000   0.00000   0.00000  -0.17358
  35         Y12        0.00000   0.00000   0.00000   0.00000   0.24291
  36         Z12       -0.47949  -0.27947   0.37606  -0.40650   0.00000
                           6         7         8         9        10
     Eigenvalues --     0.05216   0.05548   0.06524   0.06530   0.07953
   1         X1        -0.12540   0.00000   0.00000  -0.12724   0.00000
   2         Y1        -0.00003   0.00869  -0.02787   0.00000   0.00000
   3         Z1         0.00000   0.00000   0.00000   0.00000  -0.00002
   4         X2        -0.14281   0.00000   0.00000  -0.15974   0.00000
   5         Y2         0.00054   0.40912   0.53862  -0.00001   0.00000
   6         Z2         0.00000   0.00000   0.00000   0.00000   0.00002
   7         X3         0.12540   0.00000   0.00000  -0.12724   0.00000
   8         Y3         0.00003   0.00869  -0.02787   0.00000   0.00000
   9         Z3         0.00000   0.00000   0.00000   0.00000   0.00002
  10         X4         0.14281   0.00000   0.00000  -0.15974   0.00000
  11         Y4        -0.00054   0.40912   0.53862  -0.00001   0.00000
  12         Z4         0.00000   0.00000   0.00000   0.00000  -0.00002
  13         X5         0.00951   0.00753  -0.04304  -0.05263   0.00000
  14         Y5         0.06679  -0.00458  -0.10232  -0.04301   0.00000
  15         Z5         0.00000   0.00000   0.00000   0.00000   0.29456
  16         X6         0.44420   0.35296  -0.30330   0.36463   0.00000
  17         Y6        -0.17406  -0.20400   0.01544  -0.30262   0.00000
  18         Z6         0.00000   0.00000   0.00000   0.00000  -0.40401
  19         X7         0.00964  -0.00753   0.04304  -0.05263   0.00000
  20         Y7        -0.06696  -0.00458  -0.10232   0.04302   0.00000
  21         Z7         0.00000   0.00000   0.00000   0.00000  -0.29457
  22         X8         0.44386  -0.35296   0.30331   0.36462   0.00000
  23         Y8         0.17358  -0.20400   0.01544   0.30262   0.00000
  24         Z8         0.00000   0.00000   0.00000   0.00000   0.40403
  25         X9        -0.00964  -0.00753   0.04304  -0.05263   0.00000
  26         Y9         0.06696  -0.00458  -0.10232   0.04302   0.00000
  27         Z9         0.00000   0.00000   0.00000   0.00000   0.29457
  28         X10       -0.44386  -0.35296   0.30331   0.36462   0.00000
  29         Y10       -0.17358  -0.20400   0.01544   0.30262   0.00000
  30         Z10        0.00000   0.00000   0.00000   0.00000  -0.40403
  31         X11       -0.00951   0.00753  -0.04304  -0.05263   0.00000
  32         Y11       -0.06679  -0.00458  -0.10232  -0.04301   0.00000
  33         Z11        0.00000   0.00000   0.00000   0.00000  -0.29456
  34         X12       -0.44420   0.35296  -0.30330   0.36463   0.00000
  35         Y12        0.17406  -0.20400   0.01544  -0.30262   0.00000
  36         Z12        0.00000   0.00000   0.00000   0.00000   0.40401
                          11        12        13        14        15
     Eigenvalues --     0.07983   0.10442   0.10442   0.17990   0.18724
   1         X1         0.00000  -0.00045   0.31245   0.18250   0.00000
   2         Y1         0.00000   0.13995   0.00020   0.00000   0.00000
   3         Z1        -0.33979   0.00000   0.00000   0.00000  -0.00005
   4         X2         0.00000  -0.00062   0.42394   0.36521   0.00000
   5         Y2         0.00000   0.19079   0.00028   0.00000   0.00000
   6         Z2         0.46755   0.00000   0.00000   0.00000   0.00001
   7         X3         0.00000   0.00046  -0.31245  -0.18250   0.00000
   8         Y3         0.00000  -0.13995  -0.00020   0.00000   0.00000
   9         Z3         0.33979   0.00000   0.00000   0.00000  -0.00005
  10         X4         0.00000   0.00062  -0.42394  -0.36521   0.00000
  11         Y4         0.00000  -0.19079  -0.00028   0.00000   0.00000
  12         Z4        -0.46755   0.00000   0.00000   0.00000   0.00001
  13         X5         0.00000   0.19622   0.02724   0.09121   0.00000
  14         Y5         0.00000   0.19945  -0.19566   0.15805   0.00000
  15         Z5        -0.17043   0.00000   0.00000   0.00000   0.47952
  16         X6         0.00000   0.26567   0.03743   0.18255   0.00000
  17         Y6         0.00000   0.27097  -0.26575   0.31628   0.00000
  18         Z6         0.23225   0.00000   0.00000   0.00000  -0.14172
  19         X7         0.00000  -0.19630   0.02666   0.09121   0.00000
  20         Y7         0.00000   0.19888   0.19624  -0.15805   0.00000
  21         Z7        -0.17041   0.00000   0.00000   0.00000  -0.47947
  22         X8         0.00000  -0.26577   0.03665   0.18255   0.00000
  23         Y8         0.00000   0.27019   0.26653  -0.31628   0.00000
  24         Z8         0.23221   0.00000   0.00000   0.00000   0.14171
  25         X9         0.00000   0.19630  -0.02666  -0.09121   0.00000
  26         Y9         0.00000  -0.19888  -0.19624   0.15805   0.00000
  27         Z9         0.17041   0.00000   0.00000   0.00000  -0.47947
  28         X10        0.00000   0.26577  -0.03665  -0.18255   0.00000
  29         Y10        0.00000  -0.27019  -0.26653   0.31628   0.00000
  30         Z10       -0.23221   0.00000   0.00000   0.00000   0.14171
  31         X11        0.00000  -0.19622  -0.02724  -0.09121   0.00000
  32         Y11        0.00000  -0.19945   0.19566  -0.15805   0.00000
  33         Z11        0.17043   0.00000   0.00000   0.00000   0.47952
  34         X12        0.00000  -0.26567  -0.03743  -0.18255   0.00000
  35         Y12        0.00000  -0.27097   0.26575  -0.31628   0.00000
  36         Z12       -0.23225   0.00000   0.00000   0.00000  -0.14172
                          16        17        18        19        20
     Eigenvalues --     0.18726   0.19067   0.20239   0.27364   0.38829
   1         X1         0.00000   0.18585   0.00000   0.00000   0.01062
   2         Y1         0.00000   0.00000  -0.24064   0.00000  -0.00001
   3         Z1         0.55371   0.00000   0.00000  -0.40610   0.00000
   4         X2         0.00000   0.36347   0.00000   0.00000   0.49359
   5         Y2         0.00000   0.00000   0.32967   0.00000   0.00000
   6         Z2        -0.16438   0.00000   0.00000   0.04402   0.00000
   7         X3         0.00000   0.18585   0.00000   0.00000   0.01062
   8         Y3         0.00000   0.00000   0.24064   0.00000  -0.00001
   9         Z3         0.55371   0.00000   0.00000   0.40610   0.00000
  10         X4         0.00000   0.36347   0.00000   0.00000   0.49359
  11         Y4         0.00000   0.00000  -0.32967   0.00000   0.00000
  12         Z4        -0.16438   0.00000   0.00000  -0.04402   0.00000
  13         X5         0.00000  -0.09295   0.20815   0.00000  -0.19774
  14         Y5         0.00000  -0.16095  -0.12037   0.00000   0.12024
  15         Z5        -0.27659   0.00000   0.00000   0.40580   0.00000
  16         X6         0.00000  -0.18167  -0.28604   0.00000   0.22457
  17         Y6         0.00000  -0.31484   0.16453   0.00000   0.15538
  18         Z6         0.08164   0.00000   0.00000  -0.04361   0.00000
  19         X7         0.00000  -0.09295  -0.20815   0.00000  -0.19774
  20         Y7         0.00000   0.16095  -0.12037   0.00000  -0.12024
  21         Z7        -0.27667   0.00000   0.00000   0.40580   0.00000
  22         X8         0.00000  -0.18167   0.28604   0.00000   0.22456
  23         Y8         0.00000   0.31484   0.16453   0.00000  -0.15537
  24         Z8         0.08166   0.00000   0.00000  -0.04361   0.00000
  25         X9         0.00000  -0.09295   0.20815   0.00000  -0.19774
  26         Y9         0.00000   0.16095   0.12037   0.00000  -0.12024
  27         Z9        -0.27667   0.00000   0.00000  -0.40580   0.00000
  28         X10        0.00000  -0.18167  -0.28604   0.00000   0.22456
  29         Y10        0.00000   0.31484  -0.16453   0.00000  -0.15537
  30         Z10        0.08166   0.00000   0.00000   0.04361   0.00000
  31         X11        0.00000  -0.09295  -0.20815   0.00000  -0.19774
  32         Y11        0.00000  -0.16095   0.12037   0.00000   0.12024
  33         Z11       -0.27659   0.00000   0.00000  -0.40580   0.00000
  34         X12        0.00000  -0.18167   0.28604   0.00000   0.22457
  35         Y12        0.00000  -0.31484  -0.16453   0.00000   0.15538
  36         Z12        0.08164   0.00000   0.00000   0.04361   0.00000
                          21        22        23        24        25
     Eigenvalues --     0.38836   0.66699   0.66720   0.84033   0.93384
   1         X1         0.00000  -0.00005  -0.33459   0.00000   0.36382
   2         Y1        -0.26715   0.31371  -0.00005   0.40806   0.00000
   3         Z1         0.00000   0.00000   0.00000   0.00000   0.00000
   4         X2        -0.00001   0.00005   0.35091   0.00000  -0.18607
   5         Y2         0.13479   0.00162   0.00000  -0.00873   0.00000
   6         Z2         0.00000   0.00000   0.00000   0.00000   0.00000
   7         X3         0.00000   0.00005   0.33459   0.00000   0.36382
   8         Y3        -0.26715  -0.31371   0.00005   0.40806   0.00000
   9         Z3         0.00000   0.00000   0.00000   0.00000   0.00000
[...]
     36  0.000000D+00  0.000000D+00  0.740234D-02  0.000000D+00  0.000000D+00
                6             7             8             9            10 
      6  0.251609D-01
      7  0.000000D+00  0.738173D+00
      8  0.000000D+00  0.000000D+00  0.657324D+00
      9 -0.534663D-03  0.000000D+00  0.000000D+00  0.130401D+00
     10  0.000000D+00 -0.334815D+00  0.000000D+00  0.000000D+00  0.356388D+00
     11  0.000000D+00  0.000000D+00 -0.598691D-01  0.000000D+00  0.000000D+00
     12 -0.136602D-02  0.000000D+00  0.000000D+00 -0.352040D-01  0.000000D+00
     13  0.000000D+00 -0.281231D-01 -0.775993D-01  0.000000D+00  0.713746D-03
     14  0.000000D+00 -0.301980D-01  0.341401D-01  0.000000D+00 -0.329932D-02
     15  0.204207D-02  0.000000D+00  0.000000D+00  0.702744D-02  0.000000D+00
     16  0.000000D+00 -0.566302D-02  0.131754D-02  0.000000D+00 -0.675998D-03
     17  0.000000D+00  0.380692D-03  0.185507D-02  0.000000D+00  0.200143D-03
     18 -0.371234D-02  0.000000D+00  0.000000D+00  0.740235D-02  0.000000D+00
     19  0.000000D+00 -0.281231D-01  0.775993D-01  0.000000D+00  0.713745D-03
     20  0.000000D+00  0.301980D-01  0.341401D-01  0.000000D+00  0.329932D-02
     21  0.204207D-02  0.000000D+00  0.000000D+00  0.702745D-02  0.000000D+00
     22  0.000000D+00 -0.566302D-02 -0.131754D-02  0.000000D+00 -0.675998D-03
     23  0.000000D+00 -0.380692D-03  0.185507D-02  0.000000D+00 -0.200143D-03
     24 -0.371234D-02  0.000000D+00  0.000000D+00  0.740235D-02  0.000000D+00
     25  0.000000D+00 -0.179898D+00 -0.543184D-01  0.000000D+00 -0.120411D-01
     26  0.000000D+00 -0.119146D+00 -0.280191D+00  0.000000D+00  0.238833D-02
     27  0.739885D-02  0.000000D+00  0.000000D+00 -0.599702D-01  0.000000D+00
     28  0.000000D+00  0.119097D-01 -0.149430D-01  0.000000D+00  0.881173D-03
     29  0.000000D+00  0.162223D-01 -0.192930D-01  0.000000D+00 -0.290857D-03
     30  0.243273D-03  0.000000D+00  0.000000D+00  0.206036D-02  0.000000D+00
     31  0.000000D+00 -0.179898D+00  0.543184D-01  0.000000D+00 -0.120411D-01
     32  0.000000D+00  0.119146D+00 -0.280191D+00  0.000000D+00 -0.238833D-02
     33  0.739885D-02  0.000000D+00  0.000000D+00 -0.599702D-01  0.000000D+00
     34  0.000000D+00  0.119097D-01  0.149430D-01  0.000000D+00  0.881173D-03
     35  0.000000D+00 -0.162223D-01 -0.192930D-01  0.000000D+00  0.290857D-03
     36  0.243273D-03  0.000000D+00  0.000000D+00  0.206036D-02  0.000000D+00
               11            12            13            14            15 
     11  0.586187D-01
     12  0.000000D+00  0.251609D-01
     13 -0.235832D-02  0.000000D+00  0.677341D+00
     14 -0.452071D-02  0.000000D+00  0.350193D-01  0.718253D+00
     15  0.000000D+00  0.739883D-02  0.000000D+00  0.000000D+00  0.130260D+00
     16 -0.140653D-02  0.000000D+00 -0.128606D+00 -0.119015D+00  0.000000D+00
     17  0.210351D-04  0.000000D+00 -0.118997D+00 -0.266109D+00  0.000000D+00
     18  0.000000D+00  0.243272D-03  0.000000D+00  0.000000D+00 -0.350107D-01
     19  0.235832D-02  0.000000D+00  0.653097D-01 -0.236650D-01  0.000000D+00
     20 -0.452071D-02  0.000000D+00  0.236650D-01 -0.590557D-01  0.000000D+00
     21  0.000000D+00  0.739883D-02  0.000000D+00  0.000000D+00  0.698674D-02
     22  0.140653D-02  0.000000D+00 -0.757614D-03 -0.321521D-02  0.000000D+00
     23  0.210350D-04  0.000000D+00 -0.415351D-02 -0.304496D-02  0.000000D+00
     24  0.000000D+00  0.243272D-03  0.000000D+00  0.000000D+00  0.740310D-02
     25 -0.287723D-01  0.000000D+00 -0.330252D+00 -0.324370D-01  0.000000D+00
     26  0.466244D-02  0.000000D+00  0.324370D-01 -0.130061D+00  0.000000D+00
     27  0.000000D+00  0.204210D-02  0.000000D+00  0.000000D+00 -0.600011D-01
     28  0.571868D-03  0.000000D+00 -0.109518D-01  0.294022D-01  0.000000D+00
     29  0.104518D-02  0.000000D+00 -0.175058D-02  0.355537D-02  0.000000D+00
     30  0.000000D+00 -0.371233D-02  0.000000D+00  0.000000D+00  0.207528D-02
     31  0.287723D-01  0.000000D+00 -0.519371D-01  0.297606D-01  0.000000D+00
     32  0.466244D-02  0.000000D+00  0.297607D-01 -0.178612D-01  0.000000D+00
     33  0.000000D+00  0.204210D-02  0.000000D+00  0.000000D+00 -0.767635D-02
     34 -0.571868D-03  0.000000D+00 -0.797749D-03  0.890172D-03  0.000000D+00
     35  0.104518D-02  0.000000D+00  0.886472D-03  0.232786D-03  0.000000D+00
     36  0.000000D+00 -0.371233D-02  0.000000D+00  0.000000D+00 -0.535810D-03
               16            17            18            19            20 
     16  0.133064D+00
     17  0.128886D+00  0.281978D+00
     18  0.000000D+00  0.000000D+00  0.249256D-01
     19 -0.757614D-03  0.415351D-02  0.000000D+00  0.677341D+00
     20  0.321521D-02 -0.304496D-02  0.000000D+00 -0.350193D-01  0.718253D+00
     21  0.000000D+00  0.000000D+00  0.740310D-02  0.000000D+00  0.000000D+00
     22  0.369046D-03 -0.803410D-03  0.000000D+00 -0.128606D+00  0.119015D+00
     23  0.803410D-03 -0.102405D-02  0.000000D+00  0.118997D+00 -0.266109D+00
     24  0.000000D+00  0.000000D+00  0.244600D-03  0.000000D+00  0.000000D+00
     25 -0.109518D-01  0.175058D-02  0.000000D+00 -0.519371D-01 -0.297606D-01
     26 -0.294022D-01  0.355537D-02  0.000000D+00 -0.297607D-01 -0.178612D-01
     27  0.000000D+00  0.000000D+00  0.207527D-02  0.000000D+00  0.000000D+00
     28  0.113993D-02 -0.432805D-03  0.000000D+00 -0.797749D-03 -0.890172D-03
     29  0.432805D-03  0.800932D-03  0.000000D+00 -0.886472D-03  0.232786D-03
     30  0.000000D+00  0.000000D+00 -0.373081D-02  0.000000D+00  0.000000D+00
     31 -0.797749D-03  0.886472D-03  0.000000D+00 -0.330252D+00  0.324370D-01
     32  0.890172D-03  0.232788D-03  0.000000D+00 -0.324370D-01 -0.130061D+00
     33  0.000000D+00  0.000000D+00 -0.535822D-03  0.000000D+00  0.000000D+00
     34  0.892370D-04 -0.924667D-04  0.000000D+00 -0.109518D-01 -0.294022D-01
     35 -0.924668D-04 -0.175843D-04  0.000000D+00  0.175058D-02  0.355537D-02
     36  0.000000D+00  0.000000D+00 -0.136479D-02  0.000000D+00  0.000000D+00
               21            22            23            24            25 
     21  0.130260D+00
     22  0.000000D+00  0.133064D+00
     23  0.000000D+00 -0.128886D+00  0.281978D+00
     24 -0.350107D-01  0.000000D+00  0.000000D+00  0.249256D-01
     25  0.000000D+00 -0.797750D-03 -0.886472D-03  0.000000D+00  0.677341D+00
     26  0.000000D+00 -0.890172D-03  0.232787D-03  0.000000D+00 -0.350193D-01
     27 -0.767635D-02  0.000000D+00  0.000000D+00 -0.535820D-03  0.000000D+00
     28  0.000000D+00  0.892369D-04  0.924668D-04  0.000000D+00 -0.128606D+00
     29  0.000000D+00  0.924668D-04 -0.175842D-04  0.000000D+00  0.118997D+00
     30 -0.535811D-03  0.000000D+00  0.000000D+00 -0.136479D-02  0.000000D+00
     31  0.000000D+00 -0.109518D-01 -0.175058D-02  0.000000D+00  0.653097D-01
     32  0.000000D+00  0.294022D-01  0.355537D-02  0.000000D+00 -0.236650D-01
     33 -0.600011D-01  0.000000D+00  0.000000D+00  0.207527D-02  0.000000D+00
     34  0.000000D+00  0.113993D-02  0.432805D-03  0.000000D+00 -0.757615D-03
     35  0.000000D+00 -0.432805D-03  0.800932D-03  0.000000D+00  0.415351D-02
     36  0.207528D-02  0.000000D+00  0.000000D+00 -0.373081D-02  0.000000D+00
               26            27            28            29            30 
     26  0.718253D+00
     27  0.000000D+00  0.130261D+00
     28  0.119015D+00  0.000000D+00  0.133064D+00
     29 -0.266109D+00  0.000000D+00 -0.128886D+00  0.281978D+00
     30  0.000000D+00 -0.350108D-01  0.000000D+00  0.000000D+00  0.249256D-01
     31  0.236650D-01  0.000000D+00 -0.757615D-03 -0.415351D-02  0.000000D+00
     32 -0.590557D-01  0.000000D+00 -0.321521D-02 -0.304496D-02  0.000000D+00
     33  0.000000D+00  0.698686D-02  0.000000D+00  0.000000D+00  0.740309D-02
     34  0.321521D-02  0.000000D+00  0.369046D-03  0.803410D-03  0.000000D+00
     35 -0.304496D-02  0.000000D+00 -0.803410D-03 -0.102405D-02  0.000000D+00
     36  0.000000D+00  0.740309D-02  0.000000D+00  0.000000D+00  0.244599D-03
               31            32            33            34            35 
     31  0.677341D+00
     32  0.350192D-01  0.718253D+00
     33  0.000000D+00  0.000000D+00  0.130261D+00
     34 -0.128606D+00 -0.119015D+00  0.000000D+00  0.133064D+00
     35 -0.118997D+00 -0.266109D+00  0.000000D+00  0.128886D+00  0.281978D+00
     36  0.000000D+00  0.000000D+00 -0.350108D-01  0.000000D+00  0.000000D+00
               36 
     36  0.249255D-01
 Leave Link  716 at Mon Jan 18 16:31:57 2016, MaxMem=  134217728 cpu:       0.0
 (Enter /apps/Gausian/g09/l103.exe)

 GradGradGradGradGradGradGradGradGradGradGradGradGradGradGradGradGradGrad
 Berny optimization.
 Search for a local minimum.
 Step number   1 out of a maximum of    2
 All quantities printed in internal units (Hartrees-Bohrs-Radians)
 Second derivative matrix not updated -- analytic derivatives used.
 ITU=  0
     Eigenvalues ---    0.01447   0.01454   0.02837   0.03192   0.05077
     Eigenvalues ---    0.05077   0.05397   0.06369   0.06375   0.07695
     Eigenvalues ---    0.07726   0.10431   0.10431   0.17807   0.18818
     Eigenvalues ---    0.18822   0.19201   0.19972   0.27435   0.39150
     Eigenvalues ---    0.39155   0.67538   0.67559   0.79413   0.95493
     Eigenvalues ---    1.02572   1.09589   1.09590   1.26669   1.26747
 Angle between quadratic step and forces=  15.52 degrees.
 Linear search not attempted -- first point.
 TrRot=  0.000000  0.000000  0.000000  0.000000  0.000000  0.000000
 Variable       Old X    -DE/DX   Delta X   Delta X   Delta X     New X
                                 (Linear)    (Quad)   (Total)
    X1        2.62848   0.00006   0.00000   0.00022   0.00022   2.62870
    Y1        0.00000   0.00000   0.00000   0.00000   0.00000   0.00000
    Z1        0.00000   0.00000   0.00000   0.00000   0.00000   0.00000
    X2        4.67483   0.00006   0.00000   0.00037   0.00037   4.67520
    Y2        0.00000   0.00000   0.00000   0.00000   0.00000   0.00000
    Z2        0.00000   0.00000   0.00000   0.00000   0.00000   0.00000
    X3       -2.62848  -0.00006   0.00000  -0.00022  -0.00022  -2.62870
    Y3        0.00000   0.00000   0.00000   0.00000   0.00000   0.00000
    Z3        0.00000   0.00000   0.00000   0.00000   0.00000   0.00000
    X4       -4.67483  -0.00006   0.00000  -0.00037  -0.00037  -4.67520
    Y4        0.00000   0.00000   0.00000   0.00000   0.00000   0.00000
    Z4        0.00000   0.00000   0.00000   0.00000   0.00000   0.00000
    X5        1.31423   0.00003   0.00000   0.00011   0.00011   1.31434
    Y5        2.27623   0.00005   0.00000   0.00019   0.00019   2.27643
    Z5        0.00000   0.00000   0.00000   0.00000   0.00000   0.00000
    X6        2.33739   0.00003   0.00000   0.00018   0.00018   2.33758
    Y6        4.04845   0.00005   0.00000   0.00032   0.00032   4.04877
    Z6        0.00000   0.00000   0.00000   0.00000   0.00000   0.00000
    X7        1.31423   0.00003   0.00000   0.00011   0.00011   1.31434
    Y7       -2.27623  -0.00005   0.00000  -0.00019  -0.00019  -2.27643
    Z7        0.00000   0.00000   0.00000   0.00000   0.00000   0.00000
    X8        2.33739   0.00003   0.00000   0.00018   0.00018   2.33758
    Y8       -4.04845  -0.00005   0.00000  -0.00032  -0.00032  -4.04877
    Z8        0.00000   0.00000   0.00000   0.00000   0.00000   0.00000
    X9       -1.31423  -0.00003   0.00000  -0.00011  -0.00011  -1.31434
    Y9        2.27623   0.00005   0.00000   0.00019   0.00019   2.27643
    Z9        0.00000   0.00000   0.00000   0.00000   0.00000   0.00000
   X10       -2.33739  -0.00003   0.00000  -0.00018  -0.00018  -2.33758
   Y10        4.04845   0.00005   0.00000   0.00032   0.00032   4.04877
   Z10        0.00000   0.00000   0.00000   0.00000   0.00000   0.00000
   X11       -1.31423  -0.00003   0.00000  -0.00011  -0.00011  -1.31434
   Y11       -2.27623  -0.00005   0.00000  -0.00019  -0.00019  -2.27643
   Z11        0.00000   0.00000   0.00000   0.00000   0.00000   0.00000
   X12       -2.33739  -0.00003   0.00000  -0.00018  -0.00018  -2.33758
   Y12       -4.04845  -0.00005   0.00000  -0.00032  -0.00032  -4.04877
   Z12        0.00000   0.00000   0.00000   0.00000   0.00000   0.00000
         Item               Value     Threshold  Converged?
 Maximum Force            0.000058     0.000450     YES
 RMS     Force            0.000033     0.000300     YES
 Maximum Displacement     0.000371     0.001800     YES
 RMS     Displacement     0.000176     0.001200     YES
 Predicted change in Energy=-1.008128D-07
 Optimization completed.
    -- Stationary point found.
 GradGradGradGradGradGradGradGradGradGradGradGradGradGradGradGradGradGrad

 Leave Link  103 at Mon Jan 18 16:31:57 2016, MaxMem=  134217728 cpu:       0.0
 (Enter /apps/Gausian/g09/l9999.exe)

 Test job not archived.
 1\1\GINC-NODE1-014\Freq\RB3LYP\def2TZVP\C6H6\TM162\18-Jan-2016\0\\#P G
 eom=AllCheck Guess=TCheck SCRF=Check Test GenChk RB3LYP/def2TZVP Freq\
 \benzE\\0,1\C,1.390929345,0.0000000001,0.\H,2.4738149086,0.0000000009,
 0.\C,-1.390929344,0.0000000017,0.\H,-2.4738149019,0.0000000009,0.\C,0.
 6954602412,1.2045315264,0.\H,1.2368961408,2.1423471707,0.\C,0.69546023
 78,-1.2045315252,0.\H,1.23689614,-2.1423471673,0.\C,-0.6954602432,1.20
 4531523,0.\H,-1.23689614,2.1423471648,0.\C,-0.6954602449,-1.2045315217
 ,0.\H,-1.2368961394,-2.1423471643,0.\\Version=EM64L-G09RevC.01\HF=-232
 .3373598\RMSD=7.427e-10\RMSF=3.305e-05\ZeroPoint=0.1001913\Thermal=0.1
 045942\Dipole=-0.0000003,0.,0.\DipoleDeriv=0.1019935,0.,0.,0.,-0.06125
 77,0.,0.,0.,-0.1349439,-0.1056365,0.,0.,0.,0.0651613,0.,0.,0.,0.135273
 5,0.1019937,0.,0.,0.,-0.0612577,0.,0.,0.,-0.1349439,-0.1056366,0.,0.,0
 .,0.0651613,0.,0.,0.,0.1352735,-0.0205851,0.0711458,0.,0.0708318,0.061
 0168,0.,0.,0.,-0.1352792,0.0224065,-0.0739829,0.,-0.0739712,-0.0629686
 ,0.,0.,0.,0.1351144,-0.0205851,-0.0711458,0.,-0.0708318,0.0610168,0.,0
 .,0.,-0.1352792,0.0224065,0.0739829,0.,0.0739712,-0.0629686,0.,0.,0.,0
 .1351144,-0.020585,-0.0711459,0.,-0.0708318,0.0610168,0.,0.,0.,-0.1352
 792,0.0224065,0.0739829,0.,0.0739713,-0.0629687,0.,0.,0.,0.1351144,-0.
 020585,0.0711459,0.,0.0708318,0.0610168,0.,0.,0.,-0.1352792,0.0224065,
 -0.0739829,0.,-0.0739713,-0.0629687,0.,0.,0.,0.1351144\Polar=78.059667
 3,0.,78.0591989,0.,0.,38.6120961\PG=C02H [SGH(C6H6)]\NImag=0\\0.738173
 35,0.,0.65732380,0.,0.,0.13040055,-0.33481499,0.,0.,0.35638761,0.,-0.0
 5986908,0.,0.,0.05861872,0.,0.,-0.03520396,0.,0.,0.02516092,-0.0005527
 3,0.,0.,0.00074265,0.,0.,0.73817334,0.,-0.06916935,0.,0.,-0.00130789,0
 .,0.,0.65732380,0.,0.,-0.00770218,0.,0.,-0.00053466,0.,0.,0.13040084,0
 .00074265,0.,0.,-0.00007100,0.,0.,-0.33481499,0.,0.,0.35638762,0.,-0.0
 0130789,0.,0.,0.00014236,0.,0.,-0.05986909,0.,0.,0.05861873,0.,0.,-0.0
 0053464,0.,0.,-0.00136602,0.,0.,-0.03520399,0.,0.,0.02516091,-0.179897
 72,0.05431839,0.,-0.01204105,0.02877226,0.,-0.02812307,-0.07759928,0.,
 0.00071375,-0.00235832,0.,0.67734141,0.11914567,-0.28019100,0.,-0.0023
 8833,0.00466243,0.,-0.03019796,0.03414014,0.,-0.00329932,-0.00452071,0
 .,0.03501926,0.71825303,0.,0.,-0.05996994,0.,0.,0.00204207,0.,0.,0.007
 02744,0.,0.,0.00739883,0.,0.,0.13026046,0.01190967,0.01494304,0.,0.000
 88117,-0.00057187,0.,-0.00566302,0.00131754,0.,-0.00067600,-0.00140653
 ,0.,-0.12860647,-0.11901516,0.,0.13306357,-0.01622231,-0.01929296,0.,0
 .00029086,0.00104518,0.,0.00038069,0.00185507,0.,0.00020014,0.00002104
 ,0.,-0.11899729,-0.26610932,0.,0.12888604,0.28197849,0.,0.,0.00206034,
 0.,0.,-0.00371234,0.,0.,0.00740235,0.,0.,0.00024327,0.,0.,-0.03501074,
 0.,0.,0.02492556,-0.17989772,-0.05431839,0.,-0.01204105,-0.02877226,0.
 ,-0.02812307,0.07759929,0.,0.00071374,0.00235832,0.,0.06530973,-0.0236
 6499,0.,-0.00075761,0.00415351,0.,0.67734141,-0.11914566,-0.28019099,0
 .,0.00238833,0.00466243,0.,0.03019796,0.03414014,0.,0.00329932,-0.0045
 2071,0.,0.02366499,-0.05905571,0.,0.00321521,-0.00304496,0.,-0.0350192
 6,0.71825302,0.,0.,-0.05996995,0.,0.,0.00204207,0.,0.,0.00702745,0.,0.
 ,0.00739883,0.,0.,0.00698674,0.,0.,0.00740310,0.,0.,0.13026049,0.01190
 967,-0.01494304,0.,0.00088117,0.00057187,0.,-0.00566302,-0.00131754,0.
 ,-0.00067600,0.00140653,0.,-0.00075761,-0.00321521,0.,0.00036905,-0.00
 080341,0.,-0.12860647,0.11901516,0.,0.13306357,0.01622231,-0.01929296,
 0.,-0.00029086,0.00104518,0.,-0.00038069,0.00185507,0.,-0.00020014,0.0
 0002104,0.,-0.00415351,-0.00304496,0.,0.00080341,-0.00102405,0.,0.1189
 9729,-0.26610932,0.,-0.12888604,0.28197849,0.,0.,0.00206034,0.,0.,-0.0
 0371234,0.,0.,0.00740235,0.,0.,0.00024327,0.,0.,0.00740310,0.,0.,0.000
 24460,0.,0.,-0.03501074,0.,0.,0.02492556,-0.02812307,0.07759928,0.,0.0
 0071375,0.00235832,0.,-0.17989771,-0.05431838,0.,-0.01204106,-0.028772
 27,0.,-0.33025231,-0.03243696,0.,-0.01095177,0.00175058,0.,-0.05193712
 ,-0.02976065,0.,-0.00079775,-0.00088647,0.,0.67734141,0.03019796,0.034
 14014,0.,0.00329932,-0.00452071,0.,-0.11914567,-0.28019098,0.,0.002388
 33,0.00466244,0.,0.03243696,-0.13006090,0.,-0.02940219,0.00355537,0.,-
 0.02976066,-0.01786116,0.,-0.00089017,0.00023279,0.,-0.03501925,0.7182
 5303,0.,0.,0.00702737,0.,0.,0.00739885,0.,0.,-0.05997015,0.,0.,0.00204
 210,0.,0.,-0.06000107,0.,0.,0.00207527,0.,0.,-0.00767635,0.,0.,-0.0005
 3582,0.,0.,0.13026061,-0.00566302,-0.00131754,0.,-0.00067600,0.0014065
 3,0.,0.01190967,-0.01494304,0.,0.00088117,0.00057187,0.,-0.01095178,0.
 02940219,0.,0.00113993,-0.00043280,0.,-0.00079775,-0.00089017,0.,0.000
 08924,0.00009247,0.,-0.12860647,0.11901516,0.,0.13306358,-0.00038069,0
 .00185507,0.,-0.00020014,0.00002104,0.,0.01622231,-0.01929296,0.,-0.00
 029086,0.00104518,0.,-0.00175058,0.00355537,0.,0.00043280,0.00080093,0
 .,-0.00088647,0.00023279,0.,0.00009247,-0.00001758,0.,0.11899729,-0.26
 610932,0.,-0.12888604,0.28197850,0.,0.,0.00740234,0.,0.,0.00024327,0.,
 0.,0.00206036,0.,0.,-0.00371233,0.,0.,0.00207528,0.,0.,-0.00373081,0.,
 0.,-0.00053581,0.,0.,-0.00136479,0.,0.,-0.03501075,0.,0.,0.02492555,-0
 .02812307,-0.07759928,0.,0.00071375,-0.00235832,0.,-0.17989771,0.05431
 838,0.,-0.01204106,0.02877227,0.,-0.05193712,0.02976065,0.,-0.00079775
 ,0.00088647,0.,-0.33025230,0.03243696,0.,-0.01095177,-0.00175058,0.,0.
 06530973,0.02366499,0.,-0.00075762,-0.00415351,0.,0.67734141,-0.030197
 96,0.03414014,0.,-0.00329932,-0.00452071,0.,0.11914567,-0.28019098,0.,
 -0.00238833,0.00466244,0.,0.02976065,-0.01786116,0.,0.00089017,0.00023
 279,0.,-0.03243696,-0.13006090,0.,0.02940219,0.00355537,0.,-0.02366499
 ,-0.05905573,0.,-0.00321521,-0.00304496,0.,0.03501925,0.71825303,0.,0.
 ,0.00702738,0.,0.,0.00739885,0.,0.,-0.05997017,0.,0.,0.00204210,0.,0.,
 -0.00767635,0.,0.,-0.00053582,0.,0.,-0.06000110,0.,0.,0.00207527,0.,0.
 ,0.00698686,0.,0.,0.00740309,0.,0.,0.13026064,-0.00566302,0.00131754,0
 .,-0.00067600,-0.00140653,0.,0.01190967,0.01494304,0.,0.00088117,-0.00
 057187,0.,-0.00079775,0.00089017,0.,0.00008924,-0.00009247,0.,-0.01095
 178,-0.02940219,0.,0.00113993,0.00043280,0.,-0.00075761,0.00321521,0.,
 0.00036905,0.00080341,0.,-0.12860647,-0.11901516,0.,0.13306358,0.00038
 069,0.00185507,0.,0.00020014,0.00002104,0.,-0.01622232,-0.01929296,0.,
 0.00029086,0.00104518,0.,0.00088647,0.00023279,0.,-0.00009247,-0.00001
 758,0.,0.00175058,0.00355537,0.,-0.00043280,0.00080093,0.,0.00415351,-
 0.00304496,0.,-0.00080341,-0.00102405,0.,-0.11899729,-0.26610932,0.,0.
 12888604,0.28197850,0.,0.,0.00740234,0.,0.,0.00024327,0.,0.,0.00206036
 ,0.,0.,-0.00371233,0.,0.,-0.00053581,0.,0.,-0.00136479,0.,0.,0.0020752
 8,0.,0.,-0.00373081,0.,0.,0.00740309,0.,0.,0.00024460,0.,0.,-0.0350107
 6,0.,0.,0.02492555\\-0.00005820,0.,0.,-0.00005600,0.,0.,0.00005820,0.,
 0.,0.00005600,0.,0.,-0.00003017,-0.00005046,0.,-0.00002786,-0.00004834
 ,0.,-0.00003017,0.00005045,0.,-0.00002786,0.00004834,0.,0.00003018,-0.
 00005045,0.,0.00002786,-0.00004834,0.,0.00003018,0.00005045,0.,0.00002
 786,0.00004834,0.\\\@


 PICNIC:  A SNACK IN THE GRASS.
 Job cpu time:  0 days  0 hours 20 minutes  6.5 seconds.
 File lengths (MBytes):  RWF=     60 Int=      0 D2E=      0 Chk=      4 Scr=      1
 Normal termination of Gaussian 09 at Mon Jan 18 16:31:57 2016.
