benzene                                                                 
FOpt      RLC-BLYP                                                    STO-3G              
Number of atoms                            I               12
Info1-9                                    I   N=           9
          23          23           0           0           0         101
           2          18         202
Charge                                     I                0
Multiplicity                               I                1
Number of electrons                        I               42
Number of alpha electrons                  I               21
Number of beta electrons                   I               21
Number of basis functions                  I               36
Number of independent functions            I               36
Number of point charges in /Mol/           I                0
Number of translation vectors              I                0
Atomic numbers                             I   N=          12
           6           1           6           1           6           1
           6           1           6           1           6           1
Nuclear charges                            R   N=          12
  6.00000000E+00  1.00000000E+00  6.00000000E+00  1.00000000E+00  6.00000000E+00
  1.00000000E+00  6.00000000E+00  1.00000000E+00  6.00000000E+00  1.00000000E+00
  6.00000000E+00  1.00000000E+00
Current cartesian coordinates              R   N=          36
  2.63063673E+00  0.00000000E+00  0.00000000E+00  4.69140953E+00  0.00000000E+00
  0.00000000E+00 -2.63063673E+00  0.00000000E+00  0.00000000E+00 -4.69140953E+00
  0.00000000E+00  0.00000000E+00  1.31548749E+00  2.27813288E+00  0.00000000E+00
  2.34612334E+00  4.06265418E+00  0.00000000E+00  1.31548749E+00 -2.27813288E+00
  0.00000000E+00  2.34612334E+00 -4.06265418E+00  0.00000000E+00 -1.31548749E+00
  2.27813288E+00  0.00000000E+00 -2.34612334E+00  4.06265418E+00  0.00000000E+00
 -1.31548749E+00 -2.27813288E+00  0.00000000E+00 -2.34612334E+00 -4.06265418E+00
  0.00000000E+00
Number of symbols in /Mol/                 I                0
Force Field                                I                0
Atom Types                                 C   N=          12
                                                            
                                                            
                        
Int Atom Types                             I   N=          12
           0           0           0           0           0           0
           0           0           0           0           0           0
MM charges                                 R   N=          12
  0.00000000E+00  0.00000000E+00  0.00000000E+00  0.00000000E+00  0.00000000E+00
  0.00000000E+00  0.00000000E+00  0.00000000E+00  0.00000000E+00  0.00000000E+00
  0.00000000E+00  0.00000000E+00
Integer atomic weights                     I   N=          12
          12           1          12           1          12           1
          12           1          12           1          12           1
Real atomic weights                        R   N=          12
  1.20000000E+01  1.00782504E+00  1.20000000E+01  1.00782504E+00  1.20000000E+01
  1.00782504E+00  1.20000000E+01  1.00782504E+00  1.20000000E+01  1.00782504E+00
  1.20000000E+01  1.00782504E+00
Atom fragment info                         I   N=          12
           0           0           0           0           0           0
           0           0           0           0           0           0
Atom residue num                           I   N=          12
           0           0           0           0           0           0
           0           0           0           0           0           0
Nuclear spins                              I   N=          12
           0           1           0           1           0           1
           0           1           0           1           0           1
Nuclear ZEff                               R   N=          12
 -3.60000000E+00 -1.00000000E+00 -3.60000000E+00 -1.00000000E+00 -3.60000000E+00
 -1.00000000E+00 -3.60000000E+00 -1.00000000E+00 -3.60000000E+00 -1.00000000E+00
 -3.60000000E+00 -1.00000000E+00
Nuclear QMom                               R   N=          12
  0.00000000E+00  0.00000000E+00  0.00000000E+00  0.00000000E+00  0.00000000E+00
  0.00000000E+00  0.00000000E+00  0.00000000E+00  0.00000000E+00  0.00000000E+00
  0.00000000E+00  0.00000000E+00
Nuclear GFac                               R   N=          12
  0.00000000E+00  2.79284600E+00  0.00000000E+00  2.79284600E+00  0.00000000E+00
  2.79284600E+00  0.00000000E+00  2.79284600E+00  0.00000000E+00  2.79284600E+00
  0.00000000E+00  2.79284600E+00
MicOpt                                     I   N=          12
          -1          -1          -1          -1          -1          -1
          -1          -1          -1          -1          -1          -1
Number of residues                         I                0
Number of secondary structures             I                0
Number of contracted shells                I               18
Number of primitive shells                 I               54
Pure/Cartesian d shells                    I                0
Pure/Cartesian f shells                    I                0
Highest angular momentum                   I                1
Largest degree of contraction              I                3
Shell types                                I   N=          18
           0          -1           0           0          -1           0
           0          -1           0           0          -1           0
           0          -1           0           0          -1           0
Number of primitives per shell             I   N=          18
           3           3           3           3           3           3
           3           3           3           3           3           3
           3           3           3           3           3           3
Shell to atom map                          I   N=          18
           1           1           2           3           3           4
           5           5           6           7           7           8
           9           9          10          11          11          12
Primitive exponents                        R   N=          54
  7.16168373E+01  1.30450963E+01  3.53051216E+00  2.94124936E+00  6.83483096E-01
  2.22289916E-01  3.42525091E+00  6.23913730E-01  1.68855404E-01  7.16168373E+01
  1.30450963E+01  3.53051216E+00  2.94124936E+00  6.83483096E-01  2.22289916E-01
  3.42525091E+00  6.23913730E-01  1.68855404E-01  7.16168373E+01  1.30450963E+01
  3.53051216E+00  2.94124936E+00  6.83483096E-01  2.22289916E-01  3.42525091E+00
  6.23913730E-01  1.68855404E-01  7.16168373E+01  1.30450963E+01  3.53051216E+00
  2.94124936E+00  6.83483096E-01  2.22289916E-01  3.42525091E+00  6.23913730E-01
  1.68855404E-01  7.16168373E+01  1.30450963E+01  3.53051216E+00  2.94124936E+00
  6.83483096E-01  2.22289916E-01  3.42525091E+00  6.23913730E-01  1.68855404E-01
  7.16168373E+01  1.30450963E+01  3.53051216E+00  2.94124936E+00  6.83483096E-01
  2.22289916E-01  3.42525091E+00  6.23913730E-01  1.68855404E-01
Contraction coefficients                   R   N=          54
  1.54328967E-01  5.35328142E-01  4.44634542E-01 -9.99672292E-02  3.99512826E-01
  7.00115469E-01  1.54328967E-01  5.35328142E-01  4.44634542E-01  1.54328967E-01
  5.35328142E-01  4.44634542E-01 -9.99672292E-02  3.99512826E-01  7.00115469E-01
  1.54328967E-01  5.35328142E-01  4.44634542E-01  1.54328967E-01  5.35328142E-01
  4.44634542E-01 -9.99672292E-02  3.99512826E-01  7.00115469E-01  1.54328967E-01
  5.35328142E-01  4.44634542E-01  1.54328967E-01  5.35328142E-01  4.44634542E-01
 -9.99672292E-02  3.99512826E-01  7.00115469E-01  1.54328967E-01  5.35328142E-01
  4.44634542E-01  1.54328967E-01  5.35328142E-01  4.44634542E-01 -9.99672292E-02
  3.99512826E-01  7.00115469E-01  1.54328967E-01  5.35328142E-01  4.44634542E-01
  1.54328967E-01  5.35328142E-01  4.44634542E-01 -9.99672292E-02  3.99512826E-01
  7.00115469E-01  1.54328967E-01  5.35328142E-01  4.44634542E-01
P(S=P) Contraction coefficients            R   N=          54
  0.00000000E+00  0.00000000E+00  0.00000000E+00  1.55916275E-01  6.07683719E-01
  3.91957393E-01  0.00000000E+00  0.00000000E+00  0.00000000E+00  0.00000000E+00
  0.00000000E+00  0.00000000E+00  1.55916275E-01  6.07683719E-01  3.91957393E-01
  0.00000000E+00  0.00000000E+00  0.00000000E+00  0.00000000E+00  0.00000000E+00
  0.00000000E+00  1.55916275E-01  6.07683719E-01  3.91957393E-01  0.00000000E+00
  0.00000000E+00  0.00000000E+00  0.00000000E+00  0.00000000E+00  0.00000000E+00
  1.55916275E-01  6.07683719E-01  3.91957393E-01  0.00000000E+00  0.00000000E+00
  0.00000000E+00  0.00000000E+00  0.00000000E+00  0.00000000E+00  1.55916275E-01
  6.07683719E-01  3.91957393E-01  0.00000000E+00  0.00000000E+00  0.00000000E+00
  0.00000000E+00  0.00000000E+00  0.00000000E+00  1.55916275E-01  6.07683719E-01
  3.91957393E-01  0.00000000E+00  0.00000000E+00  0.00000000E+00
Coordinates of each shell                  R   N=          54
  2.63063673E+00  0.00000000E+00  0.00000000E+00  2.63063673E+00  0.00000000E+00
  0.00000000E+00  4.69140953E+00  0.00000000E+00  0.00000000E+00 -2.63063673E+00
  0.00000000E+00  0.00000000E+00 -2.63063673E+00  0.00000000E+00  0.00000000E+00
 -4.69140953E+00  0.00000000E+00  0.00000000E+00  1.31548749E+00  2.27813288E+00
  0.00000000E+00  1.31548749E+00  2.27813288E+00  0.00000000E+00  2.34612334E+00
  4.06265418E+00  0.00000000E+00  1.31548749E+00 -2.27813288E+00  0.00000000E+00
  1.31548749E+00 -2.27813288E+00  0.00000000E+00  2.34612334E+00 -4.06265418E+00
  0.00000000E+00 -1.31548749E+00  2.27813288E+00  0.00000000E+00 -1.31548749E+00
  2.27813288E+00  0.00000000E+00 -2.34612334E+00  4.06265418E+00  0.00000000E+00
 -1.31548749E+00 -2.27813288E+00  0.00000000E+00 -1.31548749E+00 -2.27813288E+00
  0.00000000E+00 -2.34612334E+00 -4.06265418E+00  0.00000000E+00
Constraint Structure                       R   N=          36
  2.63063673E+00  0.00000000E+00  0.00000000E+00  4.69140953E+00  0.00000000E+00
  0.00000000E+00 -2.63063673E+00  0.00000000E+00  0.00000000E+00 -4.69140953E+00
  0.00000000E+00  0.00000000E+00  1.31548749E+00  2.27813288E+00  0.00000000E+00
  2.34612334E+00  4.06265418E+00  0.00000000E+00  1.31548749E+00 -2.27813288E+00
  0.00000000E+00  2.34612334E+00 -4.06265418E+00  0.00000000E+00 -1.31548749E+00
  2.27813288E+00  0.00000000E+00 -2.34612334E+00  4.06265418E+00  0.00000000E+00
 -1.31548749E+00 -2.27813288E+00  0.00000000E+00 -2.34612334E+00 -4.06265418E+00
  0.00000000E+00
Num ILSW                                   I              100
ILSW                                       I   N=         100
           0           0           0           0           2           0
           0           0           3           0       10402          -1
           0           0           0           0           2           0
           0           0           0           0           1           0
           1           1           0           0           0           0
           0           0      100000           0          -1           0
           0           0           0           0           0           0
           0           0           0           1           0           0
           0           0           1           0           0           0
           0           0           4          40           0           0
           0           0           0           0           0           0
           0           0           0           0           0           0
           0           0           0           0           0           0
           0           0           0           0           0           0
           0           0           0           0           0           0
           0           0           0           0           0           0
           0           0           0           0
Num RLSW                                   I               40
RLSW                                       R   N=          40
  1.00000000E+00  1.00000000E+00  1.00000000E+00  1.00000000E+00  1.00000000E+00
  0.00000000E+00  4.70000000E-01  0.00000000E+00  0.00000000E+00  1.00000000E+00
  0.00000000E+00  4.70000000E-01  0.00000000E+00  0.00000000E+00  1.00000000E+00
  0.00000000E+00  0.00000000E+00  1.00000000E+00  0.00000000E+00  0.00000000E+00
  0.00000000E+00  0.00000000E+00  1.00000000E+00  0.00000000E+00  0.00000000E+00
  0.00000000E+00  0.00000000E+00  1.00000000E+00  0.00000000E+00  0.00000000E+00
  0.00000000E+00  0.00000000E+00  1.00000000E+00  0.00000000E+00  0.00000000E+00
  0.00000000E+00  0.00000000E+00  0.00000000E+00  1.00000000E+00  1.00000000E+00
MxBond                                     I                3
NBond                                      I   N=          12
           3           1           3           1           3           1
           3           1           3           1           3           1
IBond                                      I   N=          36
           2           5           7           1           0           0
           4           9          11           3           0           0
           1           6           9           5           0           0
           1           8          11           7           0           0
           3           5          10           9           0           0
           3           7          12          11           0           0
RBond                                      R   N=          36
  1.00000000E+00  1.50000000E+00  1.50000000E+00  1.00000000E+00  0.00000000E+00
  0.00000000E+00  1.00000000E+00  1.50000000E+00  1.50000000E+00  1.00000000E+00
  0.00000000E+00  0.00000000E+00  1.50000000E+00  1.00000000E+00  1.50000000E+00
  1.00000000E+00  0.00000000E+00  0.00000000E+00  1.50000000E+00  1.00000000E+00
  1.50000000E+00  1.00000000E+00  0.00000000E+00  0.00000000E+00  1.50000000E+00
  1.50000000E+00  1.00000000E+00  1.00000000E+00  0.00000000E+00  0.00000000E+00
  1.50000000E+00  1.50000000E+00  1.00000000E+00  1.00000000E+00  0.00000000E+00
  0.00000000E+00
Virial Ratio                               R      2.013815673335707E+00
SCF Energy                                 R     -2.286317810429861E+02
Total Energy                               R     -2.286317810429861E+02
RMS Force                                  R      7.456722815142250E-05
RMS Density                                R      6.513095487744404E-09
External E-field                           R   N=          35
  0.00000000E+00  0.00000000E+00  0.00000000E+00  0.00000000E+00  0.00000000E+00
  0.00000000E+00  0.00000000E+00  0.00000000E+00  0.00000000E+00  0.00000000E+00
  0.00000000E+00  0.00000000E+00  0.00000000E+00  0.00000000E+00  0.00000000E+00
  0.00000000E+00  0.00000000E+00  0.00000000E+00  0.00000000E+00  0.00000000E+00
  0.00000000E+00  0.00000000E+00  0.00000000E+00  0.00000000E+00  0.00000000E+00
  0.00000000E+00  0.00000000E+00  0.00000000E+00  0.00000000E+00  0.00000000E+00
  0.00000000E+00  0.00000000E+00  0.00000000E+00  0.00000000E+00  0.00000000E+00
IOpCl                                      I                0
IROHF                                      I                0
Alpha Orbital Energies                     R   N=          36
 -9.96510685E+00 -9.96463739E+00 -9.96463391E+00 -9.96384966E+00 -9.96384741E+00
 -9.96322062E+00 -9.79843748E-01 -8.62184402E-01 -8.62110121E-01 -7.06037992E-01
 -7.05959449E-01 -6.27542434E-01 -5.53517379E-01 -5.28413827E-01 -5.07270164E-01
 -5.07220908E-01 -4.57625559E-01 -4.15476177E-01 -4.15427617E-01 -3.01817851E-01
 -3.01729713E-01  1.99110922E-01  1.99214863E-01  4.02608834E-01  4.79921518E-01
  5.35724574E-01  5.35784677E-01  6.14091629E-01  6.21598157E-01  6.21799644E-01
  7.39519359E-01  7.39603315E-01  7.51754578E-01  7.52005554E-01  9.12258837E-01
  9.75178139E-01
Alpha MO coefficients                      R   N=        1296
 -4.02463193E-01 -2.83408214E-02  3.80608840E-03 -1.04779458E-13 -3.99684509E-16
  4.12560498E-03  4.02463193E-01  2.83408214E-02  3.80608840E-03  1.08877349E-13
  2.50968409E-16 -4.12560498E-03  4.04001801E-01  2.83949759E-02 -1.90730620E-03
 -3.29007335E-03  2.17993516E-16 -4.13996348E-03  4.04001801E-01  2.83949759E-02
 -1.90730620E-03  3.29007335E-03 -1.60882129E-16 -4.13996348E-03 -4.04001801E-01
 -2.83949759E-02 -1.90730620E-03  3.29007335E-03 -1.45580992E-16  4.13996348E-03
 -4.04001801E-01 -2.83949759E-02 -1.90730620E-03 -3.29007335E-03  2.20387207E-17
  4.13996348E-03 -6.56184775E-10 -3.83795217E-11  3.27280031E-12 -5.87380889E-03
 -8.95051616E-16  6.51810356E-12 -6.85399866E-10 -3.99646712E-11 -3.38686685E-12
  5.87380889E-03 -5.05269873E-16  6.80665088E-12  4.94538474E-01  2.88785988E-02
 -3.76889929E-03 -6.60098323E-04  1.04983263E-15 -4.91138782E-03 -4.94538473E-01
 -2.88785988E-02  3.76889930E-03 -6.60098314E-04  1.04383828E-15  4.91138782E-03
 -4.94538473E-01 -2.88785988E-02 -3.76889930E-03  6.60098314E-04  1.04207956E-15
  4.91138782E-03  4.94538474E-01  2.88785988E-02  3.76889929E-03  6.60098323E-04
  1.78320036E-15 -4.91138782E-03  5.70523623E-01  3.33375698E-02 -2.83986337E-03
 -6.85312518E-12 -1.33247345E-15 -5.66644519E-03  5.70523623E-01  3.33375698E-02
  2.83986337E-03  6.94180062E-12 -4.99184587E-16 -5.66644519E-03 -2.86041424E-01
 -1.66910174E-02 -3.69786414E-03  3.76989890E-03  3.92542360E-16  2.84081832E-03
 -2.86041425E-01 -1.66910175E-02 -3.69786413E-03 -3.76989890E-03 -1.58231013E-15
  2.84081834E-03 -2.86041425E-01 -1.66910175E-02  3.69786413E-03  3.76989890E-03
 -8.52601573E-16  2.84081834E-03 -2.86041424E-01 -1.66910174E-02  3.69786414E-03
 -3.76989890E-03  2.70974462E-16  2.84081832E-03  5.94194949E-10  2.26664165E-11
  9.62613448E-13 -5.76781609E-03  1.08593313E-15 -5.62276515E-12 -5.76400909E-10
 -2.18978617E-11  9.55464706E-13 -5.76781609E-03 -2.14205120E-16  5.44686143E-12
  4.95221497E-01  1.88369749E-02  2.90760067E-03 -7.33997818E-04  6.10059818E-16
 -4.68291223E-03 -4.95221497E-01 -1.88369749E-02 -2.90760068E-03 -7.33997824E-04
 -1.36264728E-15  4.68291223E-03  4.95221497E-01  1.88369749E-02 -2.90760068E-03
 -7.33997824E-04  5.24872721E-16 -4.68291223E-03 -4.95221497E-01 -1.88369749E-02
  2.90760067E-03 -7.33997818E-04 -3.48740539E-16  4.68291223E-03  5.72554959E-01
  2.18013704E-02  9.37417462E-04  5.97249762E-12 -4.65509853E-16 -5.41462136E-03
 -5.72554959E-01 -2.18013704E-02  9.37417462E-04  5.82230632E-12 -3.75900054E-16
  5.41462136E-03  2.85191946E-01  1.08214784E-02 -4.08400190E-03  2.91180839E-03
 -1.03062277E-16 -2.69608555E-03  2.85191947E-01  1.08214784E-02 -4.08400190E-03
 -2.91180839E-03  4.04110016E-16 -2.69608556E-03 -2.85191947E-01 -1.08214784E-02
 -4.08400190E-03 -2.91180839E-03 -1.12981914E-16  2.69608556E-03 -2.85191946E-01
 -1.08214784E-02 -4.08400190E-03  2.91180839E-03 -5.87031052E-16  2.69608555E-03
  4.05440384E-01  1.15572966E-02  2.22261525E-03  5.04558555E-14 -3.40914812E-16
 -3.94328234E-03  4.05440384E-01  1.15572966E-02 -2.22261525E-03  7.82698037E-14
  4.22357114E-16 -3.94328234E-03  4.04340879E-01  1.14936256E-02  1.10980748E-03
  1.93294003E-03  6.14204977E-16 -3.93254504E-03  4.04340879E-01  1.14936256E-02
  1.10980748E-03 -1.93294003E-03  1.31844214E-15 -3.93254504E-03  4.04340879E-01
  1.14936256E-02 -1.10980748E-03  1.93294003E-03  8.12475600E-16 -3.93254504E-03
  4.04340879E-01  1.14936256E-02 -1.10980748E-03 -1.93294003E-03 -4.83172001E-16
 -3.93254504E-03 -1.06641339E-01  2.63250505E-01 -6.37883663E-02  1.94814322E-15
  2.28217134E-16  4.82974115E-02 -1.06641339E-01  2.63250505E-01  6.37883663E-02
 -3.86238406E-15 -1.00214073E-15  4.82974115E-02 -1.06612931E-01  2.63199703E-01
 -3.18552739E-02 -5.52560371E-02 -3.76259209E-16  4.82845266E-02 -1.06612931E-01
  2.63199703E-01 -3.18552739E-02  5.52560371E-02 -4.73404561E-16  4.82845266E-02
 -1.06612931E-01  2.63199703E-01  3.18552739E-02 -5.52560371E-02  1.37049604E-15
  4.82845266E-02 -1.06612931E-01  2.63199703E-01  3.18552739E-02  5.52560371E-02
 -1.23951978E-15  4.82845266E-02 -1.48882814E-01  3.92186266E-01 -1.99505433E-02
 -1.18821720E-12  2.17567569E-15  1.12348987E-01  1.48882814E-01 -3.92186266E-01
 -1.99505433E-02 -1.18822832E-12 -1.04809813E-15 -1.12348987E-01 -7.44479425E-02
  1.96116617E-01  9.42840110E-02 -6.59597625E-02  1.65978628E-15  5.61826908E-02
 -7.44479425E-02  1.96116617E-01  9.42840110E-02  6.59597625E-02  1.68387498E-16
  5.61826908E-02  7.44479425E-02 -1.96116617E-01  9.42840110E-02  6.59597625E-02
 -5.94126666E-16 -5.61826908E-02  7.44479425E-02 -1.96116617E-01  9.42840110E-02
 -6.59597625E-02 -7.89722862E-16 -5.61826908E-02 -1.33579239E-12  3.51443892E-12
 -1.81808032E-13  1.32414339E-01 -1.17535990E-15  1.00857099E-12  1.33862304E-12
 -3.52628780E-12 -1.78039667E-13  1.32414339E-01 -1.13428865E-15 -1.01120717E-12
 -1.28932500E-01  3.39673398E-01 -6.58990808E-02  1.81223681E-02  6.81934809E-17
  9.73217041E-02  1.28932500E-01 -3.39673398E-01  6.58990808E-02  1.81223681E-02
 -4.52962287E-17 -9.73217041E-02 -1.28932500E-01  3.39673398E-01  6.58990808E-02
  1.81223681E-02 -1.00254306E-15  9.73217041E-02  1.28932500E-01 -3.39673398E-01
 -6.58990808E-02  1.81223681E-02  1.79618032E-16 -9.73217041E-02  3.28454037E-12
 -9.38401178E-12 -2.57455935E-12  2.35241297E-01  1.89087517E-15 -4.98950855E-12
  3.28045608E-12 -9.36788490E-12  2.57303701E-12 -2.35241297E-01 -1.95236977E-16
 -4.98565747E-12 -1.00188794E-01  2.86113450E-01  1.41044407E-01  9.06985215E-03
  2.07415503E-15  1.52160874E-01  1.00188794E-01 -2.86113450E-01 -1.41044407E-01
  9.06985214E-03  1.68049673E-15 -1.52160874E-01  1.00188794E-01 -2.86113450E-01
  1.41044407E-01 -9.06985214E-03 -2.94492186E-16 -1.52160874E-01 -1.00188794E-01
  2.86113450E-01 -1.41044407E-01 -9.06985215E-03  4.78884643E-16  1.52160874E-01
 -1.15673719E-01  3.30351991E-01  9.05938102E-02  6.68055674E-12  1.45610940E-15
  1.75749822E-01 -1.15673719E-01  3.30351991E-01 -9.05938102E-02 -6.66720509E-12
  1.17884846E-16  1.75749822E-01  5.78489530E-02 -1.65231252E-01  1.53794480E-01
 -1.41023623E-01  5.42023178E-16 -8.78500172E-02  5.78489530E-02 -1.65231252E-01
  1.53794480E-01  1.41023623E-01  1.84750211E-15 -8.78500172E-02  5.78489530E-02
 -1.65231252E-01 -1.53794480E-01 -1.41023623E-01  1.49392476E-15 -8.78500172E-02
  5.78489530E-02 -1.65231252E-01 -1.53794480E-01  1.41023623E-01  5.42031874E-16
 -8.78500172E-02 -1.01323193E-02  4.23517834E-02  2.38423541E-01  4.00258867E-15
 -1.29940794E-15  1.68653423E-01 -1.01323193E-02  4.23517834E-02 -2.38423541E-01
 -7.14123931E-15  2.81126503E-15  1.68653423E-01 -1.01736353E-02  4.24767311E-02
  1.19202364E-01  2.06500597E-01  1.62413762E-15  1.68715931E-01 -1.01736353E-02
  4.24767311E-02  1.19202364E-01 -2.06500597E-01 -1.29299124E-15  1.68715931E-01
 -1.01736353E-02  4.24767311E-02 -1.19202364E-01  2.06500597E-01  2.95077916E-15
  1.68715931E-01 -1.01736353E-02  4.24767311E-02 -1.19202364E-01 -2.06500597E-01
  1.22094573E-15  1.68715931E-01  6.67457564E-02 -2.20013935E-01 -1.68488052E-01
 -9.59258141E-15  3.36838003E-16 -2.28333071E-01 -6.67457564E-02  2.20013935E-01
 -1.68488052E-01  1.52643071E-14  4.86932980E-16  2.28333071E-01 -6.67291581E-02
  2.19963969E-01  8.42882035E-02  1.46051843E-01 -1.64048399E-15  2.28423815E-01
 -6.67291581E-02  2.19963969E-01  8.42882035E-02 -1.46051843E-01  1.19433470E-15
  2.28423815E-01  6.67291581E-02 -2.19963969E-01  8.42882035E-02 -1.46051843E-01
 -4.77004291E-16 -2.28423815E-01  6.67291581E-02 -2.19963969E-01  8.42882035E-02
  1.46051843E-01  1.56272324E-15 -2.28423815E-01  1.46351106E-15 -3.18284650E-15
 -1.38828892E-15  3.32114811E-01  3.61601832E-15 -6.73926457E-15 -1.24174924E-17
  1.98702994E-15  8.54732477E-15  3.32114811E-01  6.05019486E-15 -8.18868544E-15
  1.66989248E-05 -8.58281658E-05  2.87651651E-01 -1.66058209E-01  2.83497747E-15
  2.35473709E-06 -1.66989248E-05  8.58281658E-05 -2.87651651E-01 -1.66058209E-01
  3.88059469E-15 -2.35473708E-06  1.66989248E-05 -8.58281658E-05 -2.87651651E-01
 -1.66058209E-01  4.60973920E-15  2.35473708E-06 -1.66989248E-05  8.58281658E-05
  2.87651651E-01 -1.66058209E-01  5.74698796E-15 -2.35473708E-06  2.91488334E-02
 -8.54422466E-02  3.77025233E-01  5.90118333E-13 -9.93644450E-16  2.72025239E-01
 -2.91488334E-02  8.54422466E-02  3.77025233E-01  6.00858057E-13 -1.88449134E-15
 -2.72025239E-01  1.46030720E-02 -4.28181989E-02  1.74260461E-02  2.07543416E-01
  2.86825180E-16  1.35913545E-01  1.46030720E-02 -4.28181989E-02  1.74260461E-02
 -2.07543416E-01 -2.05260052E-15  1.35913545E-01 -1.46030720E-02  4.28181989E-02
  1.74260461E-02 -2.07543416E-01 -6.42745383E-16 -1.35913545E-01 -1.46030720E-02
  4.28181989E-02  1.74260461E-02  2.07543416E-01 -2.49616286E-15 -1.35913545E-01
  1.73091949E-13 -5.10170222E-13  2.19151781E-12 -1.02483306E-01  9.51801262E-15
  1.57793760E-12 -1.72491060E-13  5.03873567E-13  2.19707716E-12 -1.02483306E-01
  1.15674471E-14 -1.58027583E-12  2.52597812E-02 -7.40731255E-02  2.07571000E-01
  2.57135718E-01  9.92053143E-15  2.35540010E-01 -2.52597812E-02  7.40731255E-02
 -2.07571000E-01  2.57135718E-01  9.59834094E-15 -2.35540010E-01  2.52597812E-02
 -7.40731255E-02 -2.07571000E-01  2.57135718E-01  1.07045423E-14  2.35540010E-01
 -2.52597812E-02  7.40731255E-02  2.07571000E-01  2.57135718E-01  1.01545007E-14
 -2.35540010E-01  6.60146269E-16 -1.04061764E-15  4.78571139E-15 -7.06331328E-16
  3.33986024E-01  5.31774463E-15  2.97474396E-16 -4.78838343E-16 -1.98576136E-15
 -1.49170698E-15  3.33986024E-01  2.96830829E-15 -1.20165863E-15  3.09692042E-15
 -1.63366765E-14 -5.07701962E-15  3.33928694E-01 -9.84454537E-15  6.00766445E-16
 -2.05890589E-15  4.33132485E-15 -7.71411560E-15  3.33928694E-01  5.18427022E-15
 -1.39323579E-15  2.62723636E-15  1.48078457E-14 -4.84072695E-15  3.33928694E-01
 -7.65695489E-15  5.20189766E-16 -2.19809085E-15 -3.68843342E-15 -3.67570116E-15
  3.33928694E-01  2.71261716E-15 -3.53544787E-14  3.76684573E-14 -1.55953979E-12
  3.36448592E-01 -1.55054328E-15 -1.59984328E-12 -3.71776928E-14  3.85174375E-14
  1.56022015E-12 -3.36448592E-01 -3.09490058E-15 -1.59157970E-12 -5.77867151E-03
  6.41395398E-03  2.19894591E-02 -2.98336061E-01 -1.74896563E-15 -2.52549715E-01
  5.77867151E-03 -6.41395398E-03 -2.19894591E-02 -2.98336061E-01  1.73902884E-15
  2.52549715E-01  5.77867151E-03 -6.41395398E-03  2.19894591E-02  2.98336061E-01
 -6.61150289E-16  2.52549715E-01 -5.77867151E-03  6.41395398E-03 -2.19894591E-02
  2.98336061E-01 -5.03065028E-16 -2.52549715E-01 -6.67557302E-03  7.40720755E-03
 -2.85620656E-01 -1.84443945E-12  1.08843710E-14 -2.91639127E-01 -6.67557302E-03
  7.40720755E-03  2.85620656E-01  1.83352802E-12  2.11824070E-15 -2.91639127E-01
  3.33796273E-03 -3.73862304E-03  3.23751852E-01 -2.20379920E-02  7.40749004E-15
  1.45808315E-01  3.33796273E-03 -3.73862304E-03  3.23751852E-01  2.20379920E-02
  4.99110598E-15  1.45808315E-01  3.33796273E-03 -3.73862304E-03 -3.23751852E-01
 -2.20379920E-02  4.73974401E-15  1.45808315E-01  3.33796273E-03 -3.73862304E-03
 -3.23751852E-01  2.20379920E-02  1.01805603E-15  1.45808315E-01  4.46684713E-16
 -1.39939021E-15  2.49856393E-15  6.84756836E-16  5.31505303E-01  3.14523725E-15
 -5.85863587E-17  2.07934467E-16 -3.12799875E-15  1.68363116E-15 -5.31505303E-01
  3.30817231E-15  7.16005438E-17 -3.17372496E-16 -3.29780969E-17  1.73130970E-15
  2.65781023E-01 -1.10161992E-16 -2.17159863E-16  1.56395168E-15 -2.65148912E-15
 -1.13983805E-15  2.65781023E-01 -3.88156618E-16 -5.45814254E-16  1.72338801E-15
 -1.53205584E-16  1.45481321E-15 -2.65781023E-01 -5.64684120E-16  1.93617302E-16
 -5.91633100E-16  2.30190318E-15 -1.54902653E-15 -2.65781023E-01  5.00800818E-16
  3.94175651E-16 -1.43856770E-15 -5.00579869E-16  1.88441283E-15  1.19577232E-13
 -7.74584872E-16  2.18453937E-17 -3.68847317E-16 -1.14489160E-15 -2.68129501E-16
 -1.24311937E-13  1.13895310E-15 -3.66110201E-16  6.63611136E-16 -1.46997447E-16
 -6.84937662E-16  4.60341235E-01 -1.85928191E-15  1.61121673E-16  3.11143706E-16
 -9.79684249E-16  8.50046557E-16 -4.60341235E-01 -7.45719474E-17 -1.66587199E-16
 -2.73643046E-16  1.73219714E-15 -1.03357765E-15  4.60341235E-01 -2.87517388E-16
  4.45546114E-16 -4.78540569E-16  1.27801882E-15  5.72134157E-16 -4.60341235E-01
 -1.79682518E-15  3.97014885E-17 -5.37307330E-16  1.67177007E-16  5.65736802E-16
  1.18580897E-11 -1.07172263E-16  1.74510208E-16 -1.31281877E-15 -3.98020340E-16
  2.05266205E-16  1.18554397E-11  1.84401328E-16  1.81594786E-16 -1.49336507E-15
  5.13433061E-16 -5.15448871E-16  5.70422719E-01  5.43883976E-16  1.78015409E-16
  9.68917101E-16 -5.68049782E-16  8.43874530E-16 -5.70422719E-01  3.67870897E-16
  1.87726221E-16  5.20035184E-16  9.01846414E-16 -9.33619727E-16 -5.70422719E-01
  8.30926780E-16 -1.18849087E-16  5.18636390E-16 -1.52233835E-15  2.95184759E-16
  5.70422719E-01 -6.25100510E-16 -1.30575425E-16  3.27094041E-16  8.41131006E-16
 -2.19320354E-16  6.58686457E-01 -9.63117326E-16 -8.81854727E-17  7.70137036E-16
 -1.01058157E-15 -2.37575386E-16  6.58686457E-01 -1.59522826E-15 -3.65172663E-16
  1.40199842E-15  7.41811825E-17  3.15953599E-17 -3.29392580E-01 -8.76855117E-16
 -4.94528862E-16  8.54983586E-16  7.70186605E-16 -1.31563923E-15 -3.29392580E-01
 -1.58532305E-15 -2.95559984E-16  1.18080789E-16 -1.18031043E-15  7.45108599E-16
 -3.29392580E-01 -9.70696048E-16 -2.30534939E-16  7.91192903E-16 -3.75466795E-16
 -4.13353790E-16 -3.29392580E-01 -8.65282435E-16 -4.00523993E-16  3.12928399E-15
 -9.79103951E-16 -1.73815716E-15  5.23020288E-01 -6.39809443E-16 -7.62319772E-16
  4.08573695E-15  6.18985874E-16  1.39409942E-16 -5.23020288E-01 -1.82236428E-15
 -7.92143595E-17  9.88123188E-16 -4.00996067E-16  1.04339301E-15 -5.22943626E-01
 -1.70164822E-15  7.51536850E-16 -4.34481705E-15 -2.16830556E-15 -9.78526030E-17
 -5.22943626E-01  3.10309786E-15  6.01547069E-16 -4.23961267E-15  1.20104546E-15
 -1.33249946E-15  5.22943626E-01  3.26996199E-15  1.92971821E-16 -1.06069982E-15