benzene                                                                 
Freq      ULC-BLYP                                                    STO-3G              
Number of atoms                            I               12
Info1-9                                    I   N=           9
          23          23        1001           0           0         101
           6          18         202
Charge                                     I                0
Multiplicity                               I                3
Number of electrons                        I               42
Number of alpha electrons                  I               22
Number of beta electrons                   I               20
Number of basis functions                  I               36
Number of independent functions            I               36
Number of point charges in /Mol/           I                0
Number of translation vectors              I                0
Atomic numbers                             I   N=          12
           6           1           6           1           6           1
           6           1           6           1           6           1
Nuclear charges                            R   N=          12
  6.00000000E+00  1.00000000E+00  6.00000000E+00  1.00000000E+00  6.00000000E+00
  1.00000000E+00  6.00000000E+00  1.00000000E+00  6.00000000E+00  1.00000000E+00
  6.00000000E+00  1.00000000E+00
Current cartesian coordinates              R   N=          36
  2.70859255E+00  9.99320317E-02  4.89596836E-05  4.76690499E+00  4.35870488E-02
  1.21114344E-04 -2.69846532E+00 -1.02665920E-01 -1.16801420E-03 -4.75681343E+00
 -4.61620641E-02 -3.47201706E-03  1.38517624E+00  2.36443957E+00  2.52802035E-04
  2.42393605E+00  4.14573041E+00  6.97635291E-04  1.24761046E+00 -2.40447125E+00
  5.69830491E-04  2.30972619E+00 -4.16844628E+00  2.03502243E-03 -1.23729975E+00
  2.40154291E+00  3.09190422E-04 -2.29966449E+00  4.16543987E+00  1.86407225E-03
 -1.37507920E+00 -2.36730861E+00 -4.46234418E-04 -2.41415115E+00 -4.14840038E+00
 -8.12361269E-04
Number of symbols in /Mol/                 I                0
Force Field                                I                0
Atom Types                                 C   N=          12
                                                            
                                                            
                        
Int Atom Types                             I   N=          12
           0           0           0           0           0           0
           0           0           0           0           0           0
MM charges                                 R   N=          12
  0.00000000E+00  0.00000000E+00  0.00000000E+00  0.00000000E+00  0.00000000E+00
  0.00000000E+00  0.00000000E+00  0.00000000E+00  0.00000000E+00  0.00000000E+00
  0.00000000E+00  0.00000000E+00
Integer atomic weights                     I   N=          12
          12           1          12           1          12           1
          12           1          12           1          12           1
Real atomic weights                        R   N=          12
  1.20000000E+01  1.00782504E+00  1.20000000E+01  1.00782504E+00  1.20000000E+01
  1.00782504E+00  1.20000000E+01  1.00782504E+00  1.20000000E+01  1.00782504E+00
  1.20000000E+01  1.00782504E+00
Atom fragment info                         I   N=          12
           0           0           0           0           0           0
           0           0           0           0           0           0
Atom residue num                           I   N=          12
           0           0           0           0           0           0
           0           0           0           0           0           0
Nuclear spins                              I   N=          12
           0           1           0           1           0           1
           0           1           0           1           0           1
Nuclear ZEff                               R   N=          12
 -3.60000000E+00 -1.00000000E+00 -3.60000000E+00 -1.00000000E+00 -3.60000000E+00
 -1.00000000E+00 -3.60000000E+00 -1.00000000E+00 -3.60000000E+00 -1.00000000E+00
 -3.60000000E+00 -1.00000000E+00
Nuclear QMom                               R   N=          12
  0.00000000E+00  0.00000000E+00  0.00000000E+00  0.00000000E+00  0.00000000E+00
  0.00000000E+00  0.00000000E+00  0.00000000E+00  0.00000000E+00  0.00000000E+00
  0.00000000E+00  0.00000000E+00
Nuclear GFac                               R   N=          12
  0.00000000E+00  2.79284600E+00  0.00000000E+00  2.79284600E+00  0.00000000E+00
  2.79284600E+00  0.00000000E+00  2.79284600E+00  0.00000000E+00  2.79284600E+00
  0.00000000E+00  2.79284600E+00
MicOpt                                     I   N=          12
          -1          -1          -1          -1          -1          -1
          -1          -1          -1          -1          -1          -1
Number of residues                         I                0
Number of secondary structures             I                0
Number of contracted shells                I               18
Number of primitive shells                 I               54
Pure/Cartesian d shells                    I                0
Pure/Cartesian f shells                    I                0
Highest angular momentum                   I                1
Largest degree of contraction              I                3
Shell types                                I   N=          18
           0          -1           0           0          -1           0
           0          -1           0           0          -1           0
           0          -1           0           0          -1           0
Number of primitives per shell             I   N=          18
           3           3           3           3           3           3
           3           3           3           3           3           3
           3           3           3           3           3           3
Shell to atom map                          I   N=          18
           1           1           2           3           3           4
           5           5           6           7           7           8
           9           9          10          11          11          12
Primitive exponents                        R   N=          54
  7.16168373E+01  1.30450963E+01  3.53051216E+00  2.94124936E+00  6.83483096E-01
  2.22289916E-01  3.42525091E+00  6.23913730E-01  1.68855404E-01  7.16168373E+01
  1.30450963E+01  3.53051216E+00  2.94124936E+00  6.83483096E-01  2.22289916E-01
  3.42525091E+00  6.23913730E-01  1.68855404E-01  7.16168373E+01  1.30450963E+01
  3.53051216E+00  2.94124936E+00  6.83483096E-01  2.22289916E-01  3.42525091E+00
  6.23913730E-01  1.68855404E-01  7.16168373E+01  1.30450963E+01  3.53051216E+00
  2.94124936E+00  6.83483096E-01  2.22289916E-01  3.42525091E+00  6.23913730E-01
  1.68855404E-01  7.16168373E+01  1.30450963E+01  3.53051216E+00  2.94124936E+00
  6.83483096E-01  2.22289916E-01  3.42525091E+00  6.23913730E-01  1.68855404E-01
  7.16168373E+01  1.30450963E+01  3.53051216E+00  2.94124936E+00  6.83483096E-01
  2.22289916E-01  3.42525091E+00  6.23913730E-01  1.68855404E-01
Contraction coefficients                   R   N=          54
  1.54328967E-01  5.35328142E-01  4.44634542E-01 -9.99672292E-02  3.99512826E-01
  7.00115469E-01  1.54328967E-01  5.35328142E-01  4.44634542E-01  1.54328967E-01
  5.35328142E-01  4.44634542E-01 -9.99672292E-02  3.99512826E-01  7.00115469E-01
  1.54328967E-01  5.35328142E-01  4.44634542E-01  1.54328967E-01  5.35328142E-01
  4.44634542E-01 -9.99672292E-02  3.99512826E-01  7.00115469E-01  1.54328967E-01
  5.35328142E-01  4.44634542E-01  1.54328967E-01  5.35328142E-01  4.44634542E-01
 -9.99672292E-02  3.99512826E-01  7.00115469E-01  1.54328967E-01  5.35328142E-01
  4.44634542E-01  1.54328967E-01  5.35328142E-01  4.44634542E-01 -9.99672292E-02
  3.99512826E-01  7.00115469E-01  1.54328967E-01  5.35328142E-01  4.44634542E-01
  1.54328967E-01  5.35328142E-01  4.44634542E-01 -9.99672292E-02  3.99512826E-01
  7.00115469E-01  1.54328967E-01  5.35328142E-01  4.44634542E-01
P(S=P) Contraction coefficients            R   N=          54
  0.00000000E+00  0.00000000E+00  0.00000000E+00  1.55916275E-01  6.07683719E-01
  3.91957393E-01  0.00000000E+00  0.00000000E+00  0.00000000E+00  0.00000000E+00
  0.00000000E+00  0.00000000E+00  1.55916275E-01  6.07683719E-01  3.91957393E-01
  0.00000000E+00  0.00000000E+00  0.00000000E+00  0.00000000E+00  0.00000000E+00
  0.00000000E+00  1.55916275E-01  6.07683719E-01  3.91957393E-01  0.00000000E+00
  0.00000000E+00  0.00000000E+00  0.00000000E+00  0.00000000E+00  0.00000000E+00
  1.55916275E-01  6.07683719E-01  3.91957393E-01  0.00000000E+00  0.00000000E+00
  0.00000000E+00  0.00000000E+00  0.00000000E+00  0.00000000E+00  1.55916275E-01
  6.07683719E-01  3.91957393E-01  0.00000000E+00  0.00000000E+00  0.00000000E+00
  0.00000000E+00  0.00000000E+00  0.00000000E+00  1.55916275E-01  6.07683719E-01
  3.91957393E-01  0.00000000E+00  0.00000000E+00  0.00000000E+00
Coordinates of each shell                  R   N=          54
  2.70859255E+00  9.99320317E-02  4.89596836E-05  2.70859255E+00  9.99320317E-02
  4.89596836E-05  4.76690499E+00  4.35870488E-02  1.21114344E-04 -2.69846532E+00
 -1.02665920E-01 -1.16801420E-03 -2.69846532E+00 -1.02665920E-01 -1.16801420E-03
 -4.75681343E+00 -4.61620641E-02 -3.47201706E-03  1.38517624E+00  2.36443957E+00
  2.52802035E-04  1.38517624E+00  2.36443957E+00  2.52802035E-04  2.42393605E+00
  4.14573041E+00  6.97635291E-04  1.24761046E+00 -2.40447125E+00  5.69830491E-04
  1.24761046E+00 -2.40447125E+00  5.69830491E-04  2.30972619E+00 -4.16844628E+00
  2.03502243E-03 -1.23729975E+00  2.40154291E+00  3.09190422E-04 -1.23729975E+00
  2.40154291E+00  3.09190422E-04 -2.29966449E+00  4.16543987E+00  1.86407225E-03
 -1.37507920E+00 -2.36730861E+00 -4.46234418E-04 -1.37507920E+00 -2.36730861E+00
 -4.46234418E-04 -2.41415115E+00 -4.14840038E+00 -8.12361269E-04
Constraint Structure                       R   N=          36
  2.70859255E+00  9.99320317E-02  4.89596836E-05  4.76690499E+00  4.35870488E-02
  1.21114344E-04 -2.69846532E+00 -1.02665920E-01 -1.16801420E-03 -4.75681343E+00
 -4.61620641E-02 -3.47201706E-03  1.38517624E+00  2.36443957E+00  2.52802035E-04
  2.42393605E+00  4.14573041E+00  6.97635291E-04  1.24761046E+00 -2.40447125E+00
  5.69830491E-04  2.30972619E+00 -4.16844628E+00  2.03502243E-03 -1.23729975E+00
  2.40154291E+00  3.09190422E-04 -2.29966449E+00  4.16543987E+00  1.86407225E-03
 -1.37507920E+00 -2.36730861E+00 -4.46234418E-04 -2.41415115E+00 -4.14840038E+00
 -8.12361269E-04
Num ILSW                                   I              100
ILSW                                       I   N=         100
           1           0           0           1           2           0
           0           0           3           0       10402          -1
           0           0           0           0           2           0
           0           0           0           0           1           0
           1           1           0           0           0           0
           0           0      100000           0          -1           0
           0           0           0           0           0           0
           0           0           0           1           0           0
           0           0           1           0           0           0
           0           0           4          40           0           0
           0           0           0           0           0           0
           0           0           0           0           0           0
           0           0           0           0           0           0
           0           0           0           0           0           0
           0           0           0           0           0           0
           0           0           0           0           0           0
           0           0           0           0
Num RLSW                                   I               40
RLSW                                       R   N=          40
  1.00000000E+00  1.00000000E+00  1.00000000E+00  1.00000000E+00  1.00000000E+00
  0.00000000E+00  4.70000000E-01  0.00000000E+00  0.00000000E+00  1.00000000E+00
  0.00000000E+00  4.70000000E-01  0.00000000E+00  0.00000000E+00  1.00000000E+00
  0.00000000E+00  0.00000000E+00  1.00000000E+00  0.00000000E+00  0.00000000E+00
  0.00000000E+00  0.00000000E+00  1.00000000E+00  0.00000000E+00  0.00000000E+00
  0.00000000E+00  0.00000000E+00  1.00000000E+00  0.00000000E+00  0.00000000E+00
  0.00000000E+00  0.00000000E+00  1.00000000E+00  0.00000000E+00  0.00000000E+00
  0.00000000E+00  0.00000000E+00  0.00000000E+00  1.00000000E+00  1.00000000E+00
MxBond                                     I                3
NBond                                      I   N=          12
           3           1           3           1           3           1
           3           1           3           1           3           1
IBond                                      I   N=          36
           2           5           7           1           0           0
           4           9          11           3           0           0
           1           6           9           5           0           0
           1           8          11           7           0           0
           3           5          10           9           0           0
           3           7          12          11           0           0
RBond                                      R   N=          36
  1.00000000E+00  1.00000000E+00  1.00000000E+00  1.00000000E+00  0.00000000E+00
  0.00000000E+00  1.00000000E+00  1.00000000E+00  1.00000000E+00  1.00000000E+00
  0.00000000E+00  0.00000000E+00  1.00000000E+00  1.00000000E+00  2.00000000E+00
  1.00000000E+00  0.00000000E+00  0.00000000E+00  1.00000000E+00  1.00000000E+00
  1.50000000E+00  1.00000000E+00  0.00000000E+00  0.00000000E+00  1.00000000E+00
  2.00000000E+00  1.00000000E+00  1.00000000E+00  0.00000000E+00  0.00000000E+00
  1.00000000E+00  1.50000000E+00  1.00000000E+00  1.00000000E+00  0.00000000E+00
  0.00000000E+00
Virial Ratio                               R      2.012426320492654E+00
SCF Energy                                 R     -2.284844965119240E+02
Total Energy                               R     -2.284844965119240E+02
S**2                                       R      2.165154042750121E+00
S**2 after annihilation                    R      2.011500738148922E+00
RMS Force                                  R      6.013388598456227E-05
RMS Density                                R      3.860411338968231E-09
External E-field                           R   N=          35
  0.00000000E+00  0.00000000E+00  0.00000000E+00  0.00000000E+00  0.00000000E+00
  0.00000000E+00  0.00000000E+00  0.00000000E+00  0.00000000E+00  0.00000000E+00
  0.00000000E+00  0.00000000E+00  0.00000000E+00  0.00000000E+00  0.00000000E+00
  0.00000000E+00  0.00000000E+00  0.00000000E+00  0.00000000E+00  0.00000000E+00
  0.00000000E+00  0.00000000E+00  0.00000000E+00  0.00000000E+00  0.00000000E+00
  0.00000000E+00  0.00000000E+00  0.00000000E+00  0.00000000E+00  0.00000000E+00
  0.00000000E+00  0.00000000E+00  0.00000000E+00  0.00000000E+00  0.00000000E+00
IOpCl                                      I                1
IROHF                                      I                0
Alpha Orbital Energies                     R   N=          36
 -9.95745302E+00 -9.95725278E+00 -9.95635723E+00 -9.95601239E+00 -9.95504161E+00
 -9.95469813E+00 -9.64605460E-01 -8.66621502E-01 -8.49027614E-01 -7.23751787E-01
 -6.88082027E-01 -6.15126792E-01 -5.63876274E-01 -5.15489877E-01 -5.14242616E-01
 -4.85647292E-01 -4.66105223E-01 -4.30029211E-01 -3.96969755E-01 -3.43118909E-01
 -3.42954821E-01 -1.48302717E-01  2.27613223E-01  3.30358689E-01  4.87398945E-01
  4.88795626E-01  4.98726555E-01  5.62602092E-01  5.65522558E-01  6.26258460E-01
  6.88166789E-01  6.94763849E-01  7.58445898E-01  7.61020001E-01  8.72657187E-01
  9.28339387E-01
Beta Orbital Energies                      R   N=          36
 -9.96263561E+00 -9.96257003E+00 -9.94588364E+00 -9.94586044E+00 -9.94464763E+00
 -9.94453339E+00 -9.45969130E-01 -8.62988477E-01 -8.06305335E-01 -6.95144831E-01
 -6.80847008E-01 -6.09582222E-01 -5.53381492E-01 -5.13918682E-01 -5.07387758E-01
 -4.72011170E-01 -4.25387636E-01 -3.88145668E-01 -3.87863114E-01 -3.18316711E-01
  5.25705654E-02  2.51831548E-01  2.54108146E-01  4.17833331E-01  4.93986871E-01
  5.00597392E-01  5.40243744E-01  5.71672128E-01  5.91280650E-01  6.30823207E-01
  6.92198621E-01  7.09084722E-01  7.62515807E-01  7.71798652E-01  8.82502474E-01
  9.39135225E-01
Alpha MO coefficients                      R   N=        1296
 -2.32336301E-01 -1.95978386E-02  3.32499380E-03 -2.79905370E-03 -1.05048442E-06
  2.49636296E-03  2.27505087E-01  1.91811995E-02  3.25704863E-03 -2.64820943E-03
  1.67004267E-06 -2.44628494E-03  6.29515397E-01  3.55781183E-02 -1.44756994E-03
 -2.48782037E-03  3.94833667E-07 -6.20708907E-03  2.28469789E-01  1.92314089E-02
 -3.90766039E-03  1.53416140E-03 -1.86860251E-06 -2.45610498E-03 -2.31687942E-01
 -1.95613548E-02 -4.07500215E-03  1.51108252E-03  5.63727052E-07  2.48996161E-03
 -6.08162773E-01 -3.44621751E-02 -1.42560532E-03 -2.43278495E-03 -1.03135366E-07
  5.99705738E-03 -1.26084362E-01 -1.15382698E-02  1.99203996E-03 -4.83584652E-03
 -4.28658162E-07  1.31064544E-03 -1.34051578E-01 -1.21854980E-02 -2.09775533E-03
  4.91259493E-03 -6.13592759E-07  1.39566043E-03  6.65435503E-01  3.46974028E-02
 -9.03549780E-04 -1.54683151E-03  4.71639900E-07 -6.54747218E-03 -1.34547098E-01
 -1.22090713E-02  5.30986770E-03  5.92255706E-04  1.65307505E-06  1.40061614E-03
 -1.26101089E-01 -1.15440991E-02 -5.18914465E-03 -6.44042028E-04 -5.98332745E-07
  1.31087724E-03  6.84281597E-01  3.57873767E-02  9.52812728E-04  1.62763453E-03
 -1.16501354E-08 -6.73389800E-03  4.96652130E-01  2.72006126E-02 -1.88313234E-03
 -1.88868860E-03  1.48420723E-06 -4.97644670E-03  4.91856997E-01  2.69951005E-02
  1.88444060E-03  1.86025165E-03  9.25735781E-07 -4.92948082E-03  1.73713578E-03
  5.00447579E-05 -5.18880112E-03  3.03609748E-03  3.63985258E-07 -1.59809175E-05
 -4.95990394E-01 -2.71690506E-02 -7.24841284E-04 -2.57135149E-03  4.82210845E-07
  4.97040982E-03 -4.93477380E-01 -2.70540820E-02  6.88242850E-04  2.54638473E-03
  1.01013428E-06  4.94552909E-03 -2.28686807E-03 -6.62944668E-05  5.18604777E-03
 -3.01239234E-03  2.41187318E-06  2.13266788E-05  4.35764902E-01  2.08162353E-02
 -7.50618151E-04 -3.47745322E-03  9.12116248E-07 -4.30446121E-03 -4.38727998E-01
 -2.09940662E-02 -7.69363507E-04 -3.51151526E-03 -1.75907699E-07  4.33390182E-03
  3.26360926E-01  6.30357459E-03  1.34451450E-03  2.23930482E-03  2.88105719E-07
 -2.96075214E-03 -4.35148455E-01 -2.07823795E-02 -2.66699907E-03 -2.36873825E-03
 -5.42716536E-07  4.29798351E-03  4.41289450E-01  2.11041844E-02 -2.65993943E-03
 -2.38388955E-03 -7.76749352E-07 -4.35940523E-03 -3.27302845E-01 -6.38197912E-03
  1.29145841E-03  2.25693156E-03  3.46138302E-07  2.97037184E-03  4.97551177E-01
  1.94343266E-02  1.09734993E-03  3.35341645E-03  2.54090528E-07 -4.83419236E-03
 -4.93926238E-01 -1.93308621E-02  1.07335667E-03  3.32926052E-03  2.20386948E-06
  4.79783442E-03  1.31236636E-03  5.25695389E-06 -5.25460271E-03  3.08433963E-03
  2.91631207E-07 -1.21054213E-05  4.97766987E-01  1.94494886E-02 -2.38087231E-03
 -2.60546714E-03  5.53855433E-07 -4.83659198E-03 -4.91860508E-01 -1.92224445E-02
 -2.37644399E-03 -2.58401047E-03 -2.18663039E-06  4.77724286E-03  8.82379296E-04
  3.75511209E-06 -5.27989692E-03  3.06746959E-03 -2.37038202E-06 -8.23051880E-06
  4.75134104E-01  1.68070663E-02  1.88406169E-03  2.11411167E-03  1.92655450E-07
 -4.75059148E-03  4.81294560E-01  1.70558791E-02 -1.89367220E-03 -2.13703672E-03
 -2.53811429E-06 -4.81035216E-03  1.84906306E-01 -8.25437853E-04  1.44053613E-03
  2.41586667E-03  1.83716506E-07 -1.70263589E-03  4.75717972E-01  1.68290698E-02
 -9.05353259E-04 -2.67775651E-03  1.04012203E-06 -4.75645343E-03  4.79559572E-01
  1.69707806E-02  9.37952803E-04  2.70982246E-03  2.09641191E-06 -4.79331262E-03
  1.85915927E-01 -8.00598962E-04 -1.39110789E-03 -2.45263355E-03 -3.26690878E-07
 -1.71198457E-03 -1.05291180E-01  2.74997143E-01 -5.63557446E-02  1.24206870E-02
  1.45245426E-05  5.00768431E-02 -1.05274415E-01  2.74955220E-01  5.63501964E-02
 -1.23854943E-02  2.87635641E-05  5.00676022E-02 -1.07988837E-01  2.61446686E-01
 -3.08939049E-02 -5.29380753E-02 -6.12298101E-07  5.23620986E-02 -1.05272146E-01
  2.74949286E-01 -3.85196477E-02  4.29413015E-02 -2.36728696E-05  5.00696307E-02
 -1.05306486E-01  2.75027181E-01  3.85516826E-02 -4.29393338E-02 -1.32287138E-05
  5.00832780E-02 -1.07942496E-01  2.61343261E-01  3.08714944E-02  5.29256805E-02
  6.21277231E-06  5.23400345E-02  8.08108385E-02 -2.21178392E-01  1.21101325E-02
 -1.09120161E-01 -1.37979963E-05 -5.72792737E-02 -8.08470977E-02  2.21280717E-01
  1.21181872E-02 -1.09105369E-01 -2.77249732E-06  5.73029869E-02  1.43661794E-01
 -3.67736675E-01  1.26590996E-02  2.16666321E-02 -8.30179523E-06 -1.06095504E-01
 -8.08499052E-02  2.21289681E-01 -1.00941655E-01 -4.31673400E-02 -2.79572735E-05
  5.73118734E-02  8.08183609E-02 -2.21191624E-01 -1.00964131E-01 -4.31850631E-02
 -2.20057546E-05 -5.72814473E-02 -1.43679703E-01  3.67795384E-01  1.26504571E-02
  2.16849492E-02 -7.75433255E-07  1.06109560E-01 -1.26527509E-01  3.51887126E-01
 -4.78843568E-03 -4.62521361E-02  2.71432697E-05  1.01283798E-01  1.26512117E-01
 -3.51845290E-01 -4.79498405E-03 -4.62674729E-02 -1.11834105E-05 -1.01269385E-01
 -3.31461571E-06  7.38869067E-06  1.19038587E-01 -6.94402128E-02 -1.51635667E-06
 -2.51285506E-06 -1.26515912E-01  3.51855918E-01  3.79208070E-02  2.69326301E-02
 -1.10442690E-06  1.01278614E-01  1.26517022E-01 -3.51847448E-01  3.79244177E-02
  2.69282434E-02  2.12698450E-05 -1.01277368E-01 -5.90224988E-07  1.96881407E-06
  1.19010326E-01 -6.94209258E-02  4.97347586E-05 -8.52310964E-07 -1.05909109E-01
  3.11411497E-01  7.23327923E-02  1.03664855E-01 -6.21452793E-06  1.44489357E-01
 -1.05906317E-01  3.11409503E-01 -7.23284373E-02 -1.03632781E-01 -9.03581881E-05
  1.44481972E-01  2.38505358E-05 -6.26955753E-05  1.91843130E-01 -1.11923921E-01
 -2.93105098E-05 -4.48337594E-05  1.05889471E-01 -3.11356006E-01  5.46735470E-02
  1.14009554E-01 -3.33568918E-05 -1.44470707E-01  1.05870650E-01 -3.11286678E-01
 -5.47116208E-02 -1.13996840E-01 -8.22659966E-05 -1.44422835E-01  1.57409178E-05
 -4.16453813E-05 -1.91816598E-01  1.11898483E-01 -1.06358069E-04 -1.61931752E-05
  5.64988265E-02 -1.76187852E-01 -5.72676265E-02  1.93582076E-01 -1.75272516E-05
 -9.91224654E-02  5.64979185E-02 -1.76182420E-01  5.72507374E-02 -1.93618700E-01
  2.10477223E-05 -9.91192288E-02 -1.12978262E-01  3.21925280E-01  4.91540007E-02
  8.42241142E-02  2.26758431E-05  1.84589500E-01  5.65350528E-02 -1.76294178E-01
 -1.96680458E-01 -4.53936292E-02 -6.21706953E-05 -9.91754348E-02  5.65375490E-02
 -1.76305436E-01  1.96719401E-01  4.54015528E-02  2.92636734E-05 -9.91935398E-02
 -1.12992614E-01  3.21977845E-01 -4.91924382E-02 -8.42180826E-02 -2.01211889E-05
  1.84620273E-01 -7.76423894E-03  3.08783660E-02  2.40350593E-01  2.51779175E-03
  3.41899027E-05  1.66072053E-01 -7.76952440E-03  3.08910713E-02 -2.40326971E-01
 -2.50540828E-03 -1.34008147E-04  1.66063472E-01 -7.97925953E-03  3.48348414E-02
  1.23455971E-01  2.11689609E-01  4.85547534E-05  1.76619973E-01 -7.76639919E-03
  3.08786894E-02  1.16100447E-01 -2.10447271E-01  8.98265382E-05  1.66068309E-01
 -7.75746251E-03  3.08560378E-02 -1.16111844E-01  2.10463007E-01  6.85398620E-05
  1.66067205E-01 -7.97408548E-03  3.48103085E-02 -1.23439267E-01 -2.11616029E-01
 -3.61599904E-05  1.76566978E-01 -6.57386155E-02  2.21531371E-01  1.83764354E-01
 -2.74248947E-02 -3.54201304E-05  2.28206597E-01  6.57534391E-02 -2.21581759E-01
  1.83763653E-01 -2.73770718E-02  3.01727626E-04 -2.28228295E-01  7.36112200E-02
 -2.34780364E-01 -6.33662875E-02 -1.08593919E-01  1.98576519E-05 -2.03271207E-01
  6.57413455E-02 -2.21536773E-01 -1.14288889E-01  1.46400892E-01 -1.53123342E-04
 -2.28158441E-01 -6.57561010E-02  2.21589223E-01 -1.14312522E-01  1.46398019E-01
  2.41632920E-04  2.28180249E-01 -7.36120109E-02  2.34787473E-01 -6.33523964E-02
 -1.08643524E-01  1.34156453E-05  2.03304671E-01  5.70738391E-03 -5.98689269E-03
  9.11225996E-02 -3.06990094E-01  6.76519480E-05  7.61597969E-02 -5.72040019E-03
  6.04535566E-03  9.10235970E-02 -3.06921852E-01  3.20798944E-05 -7.60710486E-02
 -4.68631148E-05  9.50477063E-05 -2.95510800E-01  1.70854455E-01  7.57970122E-05
 -1.01004217E-03  5.85683186E-03 -6.45420099E-03  3.13066865E-01  7.10871415E-02
  1.03840422E-04  7.68059650E-02 -5.85993584E-03  6.44945719E-03  3.13111881E-01
  7.10204072E-02  8.65426085E-05 -7.68934734E-02  6.21313706E-05 -1.53193096E-04
 -2.95434158E-01  1.70836858E-01 -1.48423857E-04  9.99659596E-04  2.14510400E-02
 -6.56904854E-02  1.74263155E-01 -8.39880471E-02  1.86353495E-05  1.08051030E-01
 -2.14531889E-02  6.57051630E-02  1.74301222E-01 -8.39784787E-02  2.36017550E-04
 -1.08079293E-01  1.68593838E-02 -4.10197112E-02  1.91266666E-01  3.30256393E-01
  1.19609086E-04  2.95805430E-01 -2.14055502E-02  6.56329715E-02 -1.56767383E-01
  1.10717038E-01 -7.81363909E-05 -1.07463012E-01  2.14115551E-02 -6.56452971E-02
 -1.56732689E-01  1.10647943E-01  1.76694588E-04  1.07390482E-01 -1.68649178E-02
  4.10493493E-02  1.91304418E-01  3.30241664E-01  1.09597208E-04 -2.95804346E-01
 -2.61026553E-02  9.43337809E-02 -3.15054079E-01 -1.46996521E-01 -1.21397174E-04
 -2.23369579E-01  2.61027801E-02 -9.43252762E-02 -3.15101833E-01 -1.46891493E-01
 -5.06596570E-04  2.23408618E-01  1.80120186E-05 -5.72819919E-05  1.00431164E-02
 -5.73907165E-03 -4.60619835E-05  6.92372100E-05 -2.61070659E-02  9.43403095E-02
 -2.73040445E-02  3.46722673E-01 -4.11219818E-04 -2.23542886E-01  2.61038570E-02
 -9.43259418E-02 -2.72633397E-02  3.46656573E-01  8.76680237E-05  2.23474522E-01
 -1.65882728E-05  5.75028458E-05  1.00965567E-02 -5.80874955E-03 -2.46994659E-04
 -2.95728829E-05 -1.38689682E-05  1.33332239E-05 -6.92107117E-04  3.36112349E-04
  3.64359980E-01 -6.06981121E-04 -1.83969127E-05  4.70674203E-05 -8.96718158E-05
 -4.24522359E-04  3.64290752E-01 -2.46204674E-04 -1.50990604E-05  4.43810577E-05
  5.08922823E-04 -4.49339971E-04  2.86040847E-01 -4.03115304E-05 -1.48388810E-06
  3.15301859E-05  3.71308196E-04  3.12655390E-05  3.64286858E-01  3.77914077E-04
  4.74713696E-05 -1.50306620E-04 -4.81101499E-04  1.76614953E-04  3.64361001E-01
  5.09549450E-04  1.55073601E-05 -5.05907881E-05 -6.36155183E-04  2.71949219E-04
  2.85929499E-01  4.91382538E-06  6.54640084E-03 -1.03634085E-02  2.49252036E-01
 -1.73093707E-01  8.84698082E-04  2.41098983E-01  6.53889176E-03 -1.03319208E-02
 -2.49201655E-01  1.73245740E-01  3.64087683E-04  2.41081355E-01 -1.01229051E-06
 -1.06532939E-05 -2.79512683E-01  1.62878007E-01  6.71352186E-04 -1.22764479E-04
 -6.53936592E-03  1.03348169E-02 -2.73589851E-01  1.31441318E-01  6.36324071E-04
 -2.40952075E-01 -6.54666852E-03  1.03494657E-02  2.73514793E-01 -1.31566061E-01
  5.23868216E-04 -2.41012368E-01 -3.59922691E-06  7.52148813E-06  2.79577946E-01
 -1.62969458E-01  6.99647063E-04 -1.01426100E-04 -2.71837594E-03  1.75610819E-02
 -1.43982330E-01 -3.01712627E-01 -1.13493601E-05 -1.37042264E-01 -2.72462745E-03
  1.75782276E-02  1.44005905E-01  3.01761990E-01  3.87925112E-04 -1.37036335E-01
  9.83768567E-03 -1.71273358E-02  1.38152081E-01  2.37109435E-01 -8.11379559E-06
  2.91239414E-01 -2.73025859E-03  1.75932909E-02  1.91571575E-01  2.73919725E-01
 -7.80133493E-05 -1.37202313E-01 -2.72356861E-03  1.75683530E-02 -1.91554912E-01
 -2.74002128E-01 -2.11463848E-04 -1.37278407E-01  9.84953432E-03 -1.71845213E-02
 -1.38153655E-01 -2.37130706E-01  5.38830430E-05  2.91234657E-01 -2.57535989E-05
  1.11025991E-04 -4.49228742E-05 -3.84260573E-05 -3.60930559E-01  7.64736510E-06
  7.14001945E-06 -2.05012747E-05 -4.62629870E-04 -1.45913111E-04  3.61026040E-01
  5.11836506E-05 -8.08398797E-06  3.01313119E-05 -1.09128313E-04  8.17116163E-05
 -4.14311873E-01 -7.55189714E-05 -9.84327008E-06  3.50404466E-05 -2.11415624E-04
  2.12134079E-04  3.47252197E-01 -3.45867811E-05  8.56285078E-06 -3.15599177E-05
  6.52603397E-05  3.73441844E-04 -3.47112934E-01  4.80994658E-06 -8.17845958E-06
  2.86278992E-05 -1.53832324E-04  8.44655802E-05  4.14347115E-01 -7.16098141E-05
 -6.09392465E-06  2.10409889E-05 -3.34895755E-05  5.07476937E-05  4.64692387E-01
 -1.54834099E-05  2.99304876E-05 -1.36381133E-04  5.49117149E-04  4.69395946E-05
 -4.64671919E-01 -1.41189905E-04  3.47404744E-05 -1.30123509E-04  1.41462847E-04
  1.16262418E-05 -6.11287722E-03 -8.32277854E-06  1.95383657E-05 -8.31607804E-05
 -9.54124409E-05  2.90527998E-04  4.75062085E-01 -1.11586534E-05 -1.85260052E-05
  8.89562401E-05 -1.79390901E-04  3.65665992E-04 -4.75036718E-01  1.35961239E-04
 -3.56847813E-05  1.37254356E-04 -8.96391237E-05  6.69258097E-05  6.08905557E-03
  1.09181098E-04  4.34615239E-06 -2.74706570E-05  1.05400390E-05  1.13264674E-04
  5.53331262E-01 -3.59054251E-05 -2.45944353E-05  1.21697243E-04 -5.31251619E-04
 -1.36847489E-04  5.53290053E-01 -1.74893634E-04 -2.73406759E-05  1.14938362E-04
 -4.55855083E-05 -6.62014621E-05 -1.09043991E-04 -1.72437048E-04 -2.42437516E-05
  1.14776811E-04  1.66413927E-04 -2.74776654E-04 -5.53257536E-01 -9.91154536E-05
 -1.21664887E-05  6.07906297E-05 -1.67474618E-05  4.17913361E-04 -5.53228432E-01
 -1.36969613E-04 -1.59397043E-05  6.74900339E-05 -3.15048467E-06  6.15021423E-05
 -2.41796135E-05 -1.89372014E-04 -3.84874827E-05  1.90648272E-04 -6.25637412E-05
 -5.66271202E-05 -3.11348524E-01 -1.09551648E-04 -6.29862631E-06  1.94319642E-05
  3.71153502E-04  9.67381044E-05 -3.11445381E-01  4.04708995E-05  1.84335142E-05
 -9.10258325E-05  4.40236011E-05 -1.33915390E-04  6.82166727E-01  6.24639932E-06