naphtalene                                                              
FOpt      RLC-BLYP TD-FC                                              STO-3G              
Number of atoms                            I               18
Info1-9                                    I   N=           9
          29          29        1000           0           0         101
           2         218         201
Charge                                     I                0
Multiplicity                               I                1
Number of electrons                        I               68
Number of alpha electrons                  I               34
Number of beta electrons                   I               34
Number of basis functions                  I               58
Number of independent functions            I               58
Number of point charges in /Mol/           I                0
Number of translation vectors              I                0
Atomic numbers                             I   N=          18
           6           1           6           1           6           1
           6           6           1           6           6           1
           6           1           6           1           6           1
Nuclear charges                            R   N=          18
  6.00000000E+00  1.00000000E+00  6.00000000E+00  1.00000000E+00  6.00000000E+00
  1.00000000E+00  6.00000000E+00  6.00000000E+00  1.00000000E+00  6.00000000E+00
  6.00000000E+00  1.00000000E+00  6.00000000E+00  1.00000000E+00  6.00000000E+00
  1.00000000E+00  6.00000000E+00  1.00000000E+00
Current cartesian coordinates              R   N=          54
  2.68058408E+00 -3.44338337E-01  0.00000000E+00  4.74296693E+00 -3.47904250E-01
  0.00000000E+00 -2.68058786E+00 -3.44344006E-01  0.00000000E+00 -4.74297071E+00
 -3.47913699E-01  0.00000000E+00  1.34651680E+00  1.92159069E+00  0.00000000E+00
  2.36442156E+00  3.71550582E+00  0.00000000E+00  1.38694938E+00 -2.72095997E+00
  0.00000000E+00 -1.34652625E+00  1.92158881E+00  0.00000000E+00 -2.36443479E+00
  3.71550015E+00  0.00000000E+00 -1.38694938E+00 -2.72096186E+00  0.00000000E+00
  2.68058408E+00 -5.09757782E+00  0.00000000E+00  4.74296693E+00 -5.09401001E+00
  0.00000000E+00 -2.68057841E+00 -5.09758349E+00  0.00000000E+00 -4.74296315E+00
 -5.09402135E+00  0.00000000E+00  1.34652436E+00 -7.36351441E+00  0.00000000E+00
  2.36444235E+00 -9.15742387E+00  0.00000000E+00 -1.34651491E+00 -7.36351819E+00
  0.00000000E+00 -2.36442723E+00 -9.15742765E+00  0.00000000E+00
Number of symbols in /Mol/                 I                0
Force Field                                I                0
Atom Types                                 C   N=          18
                                                            
                                                            
                                                            
                                    
Int Atom Types                             I   N=          18
           0           0           0           0           0           0
           0           0           0           0           0           0
           0           0           0           0           0           0
MM charges                                 R   N=          18
  0.00000000E+00  0.00000000E+00  0.00000000E+00  0.00000000E+00  0.00000000E+00
  0.00000000E+00  0.00000000E+00  0.00000000E+00  0.00000000E+00  0.00000000E+00
  0.00000000E+00  0.00000000E+00  0.00000000E+00  0.00000000E+00  0.00000000E+00
  0.00000000E+00  0.00000000E+00  0.00000000E+00
Integer atomic weights                     I   N=          18
          12           1          12           1          12           1
          12          12           1          12          12           1
          12           1          12           1          12           1
Real atomic weights                        R   N=          18
  1.20000000E+01  1.00782504E+00  1.20000000E+01  1.00782504E+00  1.20000000E+01
  1.00782504E+00  1.20000000E+01  1.20000000E+01  1.00782504E+00  1.20000000E+01
  1.20000000E+01  1.00782504E+00  1.20000000E+01  1.00782504E+00  1.20000000E+01
  1.00782504E+00  1.20000000E+01  1.00782504E+00
Atom fragment info                         I   N=          18
           0           0           0           0           0           0
           0           0           0           0           0           0
           0           0           0           0           0           0
Atom residue num                           I   N=          18
           0           0           0           0           0           0
           0           0           0           0           0           0
           0           0           0           0           0           0
Nuclear spins                              I   N=          18
           0           1           0           1           0           1
           0           0           1           0           0           1
           0           1           0           1           0           1
Nuclear ZEff                               R   N=          18
 -3.60000000E+00 -1.00000000E+00 -3.60000000E+00 -1.00000000E+00 -3.60000000E+00
 -1.00000000E+00 -3.60000000E+00 -3.60000000E+00 -1.00000000E+00 -3.60000000E+00
 -3.60000000E+00 -1.00000000E+00 -3.60000000E+00 -1.00000000E+00 -3.60000000E+00
 -1.00000000E+00 -3.60000000E+00 -1.00000000E+00
Nuclear QMom                               R   N=          18
  0.00000000E+00  0.00000000E+00  0.00000000E+00  0.00000000E+00  0.00000000E+00
  0.00000000E+00  0.00000000E+00  0.00000000E+00  0.00000000E+00  0.00000000E+00
  0.00000000E+00  0.00000000E+00  0.00000000E+00  0.00000000E+00  0.00000000E+00
  0.00000000E+00  0.00000000E+00  0.00000000E+00
Nuclear GFac                               R   N=          18
  0.00000000E+00  2.79284600E+00  0.00000000E+00  2.79284600E+00  0.00000000E+00
  2.79284600E+00  0.00000000E+00  0.00000000E+00  2.79284600E+00  0.00000000E+00
  0.00000000E+00  2.79284600E+00  0.00000000E+00  2.79284600E+00  0.00000000E+00
  2.79284600E+00  0.00000000E+00  2.79284600E+00
MicOpt                                     I   N=          18
          -1          -1          -1          -1          -1          -1
          -1          -1          -1          -1          -1          -1
          -1          -1          -1          -1          -1          -1
Number of residues                         I                0
Number of secondary structures             I                0
Number of contracted shells                I               28
Number of primitive shells                 I               84
Pure/Cartesian d shells                    I                0
Pure/Cartesian f shells                    I                0
Highest angular momentum                   I                1
Largest degree of contraction              I                3
Shell types                                I   N=          28
           0          -1           0           0          -1           0
           0          -1           0           0          -1           0
          -1           0           0          -1           0          -1
           0           0          -1           0           0          -1
           0           0          -1           0
Number of primitives per shell             I   N=          28
           3           3           3           3           3           3
           3           3           3           3           3           3
           3           3           3           3           3           3
           3           3           3           3           3           3
           3           3           3           3
Shell to atom map                          I   N=          28
           1           1           2           3           3           4
           5           5           6           7           7           8
           8           9          10          10          11          11
          12          13          13          14          15          15
          16          17          17          18
Primitive exponents                        R   N=          84
  7.16168373E+01  1.30450963E+01  3.53051216E+00  2.94124936E+00  6.83483096E-01
  2.22289916E-01  3.42525091E+00  6.23913730E-01  1.68855404E-01  7.16168373E+01
  1.30450963E+01  3.53051216E+00  2.94124936E+00  6.83483096E-01  2.22289916E-01
  3.42525091E+00  6.23913730E-01  1.68855404E-01  7.16168373E+01  1.30450963E+01
  3.53051216E+00  2.94124936E+00  6.83483096E-01  2.22289916E-01  3.42525091E+00
  6.23913730E-01  1.68855404E-01  7.16168373E+01  1.30450963E+01  3.53051216E+00
  2.94124936E+00  6.83483096E-01  2.22289916E-01  7.16168373E+01  1.30450963E+01
  3.53051216E+00  2.94124936E+00  6.83483096E-01  2.22289916E-01  3.42525091E+00
  6.23913730E-01  1.68855404E-01  7.16168373E+01  1.30450963E+01  3.53051216E+00
  2.94124936E+00  6.83483096E-01  2.22289916E-01  7.16168373E+01  1.30450963E+01
  3.53051216E+00  2.94124936E+00  6.83483096E-01  2.22289916E-01  3.42525091E+00
  6.23913730E-01  1.68855404E-01  7.16168373E+01  1.30450963E+01  3.53051216E+00
  2.94124936E+00  6.83483096E-01  2.22289916E-01  3.42525091E+00  6.23913730E-01
  1.68855404E-01  7.16168373E+01  1.30450963E+01  3.53051216E+00  2.94124936E+00
  6.83483096E-01  2.22289916E-01  3.42525091E+00  6.23913730E-01  1.68855404E-01
  7.16168373E+01  1.30450963E+01  3.53051216E+00  2.94124936E+00  6.83483096E-01
  2.22289916E-01  3.42525091E+00  6.23913730E-01  1.68855404E-01
Contraction coefficients                   R   N=          84
  1.54328967E-01  5.35328142E-01  4.44634542E-01 -9.99672292E-02  3.99512826E-01
  7.00115469E-01  1.54328967E-01  5.35328142E-01  4.44634542E-01  1.54328967E-01
  5.35328142E-01  4.44634542E-01 -9.99672292E-02  3.99512826E-01  7.00115469E-01
  1.54328967E-01  5.35328142E-01  4.44634542E-01  1.54328967E-01  5.35328142E-01
  4.44634542E-01 -9.99672292E-02  3.99512826E-01  7.00115469E-01  1.54328967E-01
  5.35328142E-01  4.44634542E-01  1.54328967E-01  5.35328142E-01  4.44634542E-01
 -9.99672292E-02  3.99512826E-01  7.00115469E-01  1.54328967E-01  5.35328142E-01
  4.44634542E-01 -9.99672292E-02  3.99512826E-01  7.00115469E-01  1.54328967E-01
  5.35328142E-01  4.44634542E-01  1.54328967E-01  5.35328142E-01  4.44634542E-01
 -9.99672292E-02  3.99512826E-01  7.00115469E-01  1.54328967E-01  5.35328142E-01
  4.44634542E-01 -9.99672292E-02  3.99512826E-01  7.00115469E-01  1.54328967E-01
  5.35328142E-01  4.44634542E-01  1.54328967E-01  5.35328142E-01  4.44634542E-01
 -9.99672292E-02  3.99512826E-01  7.00115469E-01  1.54328967E-01  5.35328142E-01
  4.44634542E-01  1.54328967E-01  5.35328142E-01  4.44634542E-01 -9.99672292E-02
  3.99512826E-01  7.00115469E-01  1.54328967E-01  5.35328142E-01  4.44634542E-01
  1.54328967E-01  5.35328142E-01  4.44634542E-01 -9.99672292E-02  3.99512826E-01
  7.00115469E-01  1.54328967E-01  5.35328142E-01  4.44634542E-01
P(S=P) Contraction coefficients            R   N=          84
  0.00000000E+00  0.00000000E+00  0.00000000E+00  1.55916275E-01  6.07683719E-01
  3.91957393E-01  0.00000000E+00  0.00000000E+00  0.00000000E+00  0.00000000E+00
  0.00000000E+00  0.00000000E+00  1.55916275E-01  6.07683719E-01  3.91957393E-01
  0.00000000E+00  0.00000000E+00  0.00000000E+00  0.00000000E+00  0.00000000E+00
  0.00000000E+00  1.55916275E-01  6.07683719E-01  3.91957393E-01  0.00000000E+00
  0.00000000E+00  0.00000000E+00  0.00000000E+00  0.00000000E+00  0.00000000E+00
  1.55916275E-01  6.07683719E-01  3.91957393E-01  0.00000000E+00  0.00000000E+00
  0.00000000E+00  1.55916275E-01  6.07683719E-01  3.91957393E-01  0.00000000E+00
  0.00000000E+00  0.00000000E+00  0.00000000E+00  0.00000000E+00  0.00000000E+00
  1.55916275E-01  6.07683719E-01  3.91957393E-01  0.00000000E+00  0.00000000E+00
  0.00000000E+00  1.55916275E-01  6.07683719E-01  3.91957393E-01  0.00000000E+00
  0.00000000E+00  0.00000000E+00  0.00000000E+00  0.00000000E+00  0.00000000E+00
  1.55916275E-01  6.07683719E-01  3.91957393E-01  0.00000000E+00  0.00000000E+00
  0.00000000E+00  0.00000000E+00  0.00000000E+00  0.00000000E+00  1.55916275E-01
  6.07683719E-01  3.91957393E-01  0.00000000E+00  0.00000000E+00  0.00000000E+00
  0.00000000E+00  0.00000000E+00  0.00000000E+00  1.55916275E-01  6.07683719E-01
  3.91957393E-01  0.00000000E+00  0.00000000E+00  0.00000000E+00
Coordinates of each shell                  R   N=          84
  2.68058408E+00 -3.44338337E-01  0.00000000E+00  2.68058408E+00 -3.44338337E-01
  0.00000000E+00  4.74296693E+00 -3.47904250E-01  0.00000000E+00 -2.68058786E+00
 -3.44344006E-01  0.00000000E+00 -2.68058786E+00 -3.44344006E-01  0.00000000E+00
 -4.74297071E+00 -3.47913699E-01  0.00000000E+00  1.34651680E+00  1.92159069E+00
  0.00000000E+00  1.34651680E+00  1.92159069E+00  0.00000000E+00  2.36442156E+00
  3.71550582E+00  0.00000000E+00  1.38694938E+00 -2.72095997E+00  0.00000000E+00
  1.38694938E+00 -2.72095997E+00  0.00000000E+00 -1.34652625E+00  1.92158881E+00
  0.00000000E+00 -1.34652625E+00  1.92158881E+00  0.00000000E+00 -2.36443479E+00
  3.71550015E+00  0.00000000E+00 -1.38694938E+00 -2.72096186E+00  0.00000000E+00
 -1.38694938E+00 -2.72096186E+00  0.00000000E+00  2.68058408E+00 -5.09757782E+00
  0.00000000E+00  2.68058408E+00 -5.09757782E+00  0.00000000E+00  4.74296693E+00
 -5.09401001E+00  0.00000000E+00 -2.68057841E+00 -5.09758349E+00  0.00000000E+00
 -2.68057841E+00 -5.09758349E+00  0.00000000E+00 -4.74296315E+00 -5.09402135E+00
  0.00000000E+00  1.34652436E+00 -7.36351441E+00  0.00000000E+00  1.34652436E+00
 -7.36351441E+00  0.00000000E+00  2.36444235E+00 -9.15742387E+00  0.00000000E+00
 -1.34651491E+00 -7.36351819E+00  0.00000000E+00 -1.34651491E+00 -7.36351819E+00
  0.00000000E+00 -2.36442723E+00 -9.15742765E+00  0.00000000E+00
Constraint Structure                       R   N=          54
  2.68058408E+00 -3.44338337E-01  0.00000000E+00  4.74296693E+00 -3.47904250E-01
  0.00000000E+00 -2.68058786E+00 -3.44344006E-01  0.00000000E+00 -4.74297071E+00
 -3.47913699E-01  0.00000000E+00  1.34651680E+00  1.92159069E+00  0.00000000E+00
  2.36442156E+00  3.71550582E+00  0.00000000E+00  1.38694938E+00 -2.72095997E+00
  0.00000000E+00 -1.34652625E+00  1.92158881E+00  0.00000000E+00 -2.36443479E+00
  3.71550015E+00  0.00000000E+00 -1.38694938E+00 -2.72096186E+00  0.00000000E+00
  2.68058408E+00 -5.09757782E+00  0.00000000E+00  4.74296693E+00 -5.09401001E+00
  0.00000000E+00 -2.68057841E+00 -5.09758349E+00  0.00000000E+00 -4.74296315E+00
 -5.09402135E+00  0.00000000E+00  1.34652436E+00 -7.36351441E+00  0.00000000E+00
  2.36444235E+00 -9.15742387E+00  0.00000000E+00 -1.34651491E+00 -7.36351819E+00
  0.00000000E+00 -2.36442723E+00 -9.15742765E+00  0.00000000E+00
Num ILSW                                   I              100
ILSW                                       I   N=         100
           0           0           0           0           2           0
           0           0           3           0       10402          -1
           0           0           0           0           2           0
           0           0           0           0           1           0
           1           1           0           0           0           0
           0           0      100000           0          -1           0
           0           0           0           0           0           0
           0           0           0           1           0           0
           0           0           1           0           0           0
           0           0           4          40           0           0
           0           0           0           0           0           0
           0           0           0           0           0           0
           0           0           0           0           0           0
           0           0           0           0           0           0
           0           0           0           0           0           0
           0           0           0           0           0           0
           0           0           0           0
Num RLSW                                   I               40
RLSW                                       R   N=          40
  1.00000000E+00  1.00000000E+00  1.00000000E+00  1.00000000E+00  1.00000000E+00
  0.00000000E+00  4.70000000E-01  0.00000000E+00  0.00000000E+00  1.00000000E+00
  0.00000000E+00  4.70000000E-01  0.00000000E+00  0.00000000E+00  1.00000000E+00
  0.00000000E+00  0.00000000E+00  1.00000000E+00  0.00000000E+00  0.00000000E+00
  0.00000000E+00  0.00000000E+00  1.00000000E+00  0.00000000E+00  0.00000000E+00
  0.00000000E+00  0.00000000E+00  1.00000000E+00  0.00000000E+00  0.00000000E+00
  0.00000000E+00  0.00000000E+00  1.00000000E+00  0.00000000E+00  0.00000000E+00
  0.00000000E+00  0.00000000E+00  0.00000000E+00  1.00000000E+00  1.00000000E+00
MxBond                                     I                3
NBond                                      I   N=          18
           3           1           3           1           3           1
           3           3           1           3           3           1
           3           1           3           1           3           1
IBond                                      I   N=          54
           2           5           7           1           0           0
           4           8          10           3           0           0
           1           6           8           5           0           0
           1          10          11           3           5           9
           8           0           0           3           7          13
           7          12          15          11           0           0
          10          14          17          13           0           0
          11          16          17          15           0           0
          13          15          18          17           0           0
RBond                                      R   N=          54
  1.00000000E+00  1.50000000E+00  1.00000000E+00  1.00000000E+00  0.00000000E+00
  0.00000000E+00  1.00000000E+00  1.50000000E+00  1.00000000E+00  1.00000000E+00
  0.00000000E+00  0.00000000E+00  1.50000000E+00  1.00000000E+00  1.50000000E+00
  1.00000000E+00  0.00000000E+00  0.00000000E+00  1.00000000E+00  1.00000000E+00
  1.00000000E+00  1.50000000E+00  1.50000000E+00  1.00000000E+00  1.00000000E+00
  0.00000000E+00  0.00000000E+00  1.00000000E+00  1.00000000E+00  1.00000000E+00
  1.00000000E+00  1.00000000E+00  1.50000000E+00  1.00000000E+00  0.00000000E+00
  0.00000000E+00  1.00000000E+00  1.00000000E+00  1.50000000E+00  1.00000000E+00
  0.00000000E+00  0.00000000E+00  1.50000000E+00  1.00000000E+00  1.50000000E+00
  1.00000000E+00  0.00000000E+00  0.00000000E+00  1.50000000E+00  1.50000000E+00
  1.00000000E+00  1.00000000E+00  0.00000000E+00  0.00000000E+00
Virial Ratio                               R      2.014935083153414E+00
SCF Energy                                 R     -3.798928909322590E+02
CIS Energy                                 R     -3.796173902055327E+02
Total Energy                               R     -3.796173902055327E+02
Post-SCF wavefunction norm                 R      1.000000000000000E+00
RMS Force                                  R      1.067757196324587E-06
RMS Density                                R      3.687657485862138E-09
External E-field                           R   N=          35
  0.00000000E+00  0.00000000E+00  0.00000000E+00  0.00000000E+00  0.00000000E+00
  0.00000000E+00  0.00000000E+00  0.00000000E+00  0.00000000E+00  0.00000000E+00
  0.00000000E+00  0.00000000E+00  0.00000000E+00  0.00000000E+00  0.00000000E+00
  0.00000000E+00  0.00000000E+00  0.00000000E+00  0.00000000E+00  0.00000000E+00
  0.00000000E+00  0.00000000E+00  0.00000000E+00  0.00000000E+00  0.00000000E+00
  0.00000000E+00  0.00000000E+00  0.00000000E+00  0.00000000E+00  0.00000000E+00
  0.00000000E+00  0.00000000E+00  0.00000000E+00  0.00000000E+00  0.00000000E+00
IOpCl                                      I                0
IROHF                                      I                0
Alpha Orbital Energies                     R   N=          58
 -9.97940536E+00 -9.97828320E+00 -9.96672995E+00 -9.96672935E+00 -9.96588590E+00
 -9.96588316E+00 -9.96520327E+00 -9.96515788E+00 -9.96493901E+00 -9.96485166E+00
 -9.90430520E-01 -9.36716223E-01 -8.87438755E-01 -8.49607298E-01 -8.28258485E-01
 -7.27302680E-01 -7.10899335E-01 -6.95021695E-01 -6.09593900E-01 -6.05773939E-01
 -5.82974779E-01 -5.37608687E-01 -5.18512990E-01 -5.01295401E-01 -4.89981538E-01
 -4.80112114E-01 -4.76226847E-01 -4.45837224E-01 -4.05104093E-01 -3.98787960E-01
 -3.94265765E-01 -3.44032462E-01 -2.79796227E-01 -2.48619040E-01  1.35809340E-01
  1.74139560E-01  2.49376531E-01  3.18203550E-01  4.32094913E-01  4.78215138E-01
  4.87963710E-01  5.10873316E-01  5.51082163E-01  5.73869025E-01  5.80344982E-01
  5.91182566E-01  5.92762672E-01  6.15268353E-01  6.69577148E-01  6.98746170E-01
  6.99236425E-01  7.10957092E-01  7.81076287E-01  7.82972827E-01  8.41694909E-01
  8.43546865E-01  9.38604944E-01  9.63194313E-01
Alpha MO coefficients                      R   N=        3364
  2.48059623E-02  8.15325587E-03 -2.35667409E-03 -4.08679646E-03  1.22916817E-16
 -3.90085593E-04 -2.48062143E-02 -8.15333416E-03 -2.35670227E-03  4.08682989E-03
  3.50024873E-16  3.90088499E-04 -1.99934209E-03 -7.33394915E-04  7.33438477E-05
  3.88796423E-04  6.87841736E-17  3.63851992E-05 -6.98390059E-01 -4.01017838E-02
  4.21681176E-03  1.61760888E-08 -2.76710055E-16  1.99932202E-03  7.33397557E-04
  7.33434294E-05 -3.88797167E-04  3.42726148E-16 -3.63859111E-05  6.98396125E-01
  4.01020290E-02  4.21676891E-03 -5.61919703E-09 -2.07223372E-17  2.48053498E-02
  8.15324985E-03 -2.35667891E-03  4.08680348E-03  4.18701999E-16 -3.90080586E-04
 -2.48057080E-02 -8.15331826E-03 -2.35668443E-03 -4.08684501E-03  5.93703556E-17
  3.90084466E-04 -1.99934793E-03 -7.33388753E-04  7.33492730E-05 -3.88791716E-04
 -1.31298090E-16  3.63852623E-05  1.99934201E-03  7.33391797E-04  7.33488431E-05
  3.88794730E-04 -9.38472806E-17 -3.63851762E-05 -2.87885338E-02 -7.85525585E-03
  2.14105163E-03  4.09149386E-03  1.54375552E-16  3.28204884E-04 -2.87883346E-02
 -7.85519658E-03 -2.14104009E-03  4.09145752E-03 -4.76148074E-17  3.28201956E-04
 -2.33410422E-03  2.90570011E-04  1.14579347E-04 -1.17446241E-04 -5.81622060E-16
 -6.86732606E-05  6.99180015E-01  2.75027356E-02  4.86444923E-03 -1.02528555E-08
 -4.27788447E-16 -2.33410547E-03  2.90565496E-04 -1.14579127E-04 -1.17443695E-04
 -2.97057680E-16 -6.86730612E-05  6.99173943E-01  2.75023954E-02 -4.86448607E-03
 -1.00337027E-08 -3.83179509E-16 -2.87878229E-02 -7.85524713E-03  2.14105827E-03
 -4.09149949E-03  6.33047141E-16  3.28198402E-04 -2.87877816E-02 -7.85518027E-03
 -2.14102829E-03 -4.09146776E-03  3.05514977E-17  3.28195788E-04 -2.33405385E-03
  2.90565544E-04  1.14574954E-04  1.17446526E-04  9.04407757E-17 -6.86724619E-05
 -2.33403954E-03  2.90563464E-04 -1.14574592E-04  1.17444697E-04 -1.02166964E-16
 -6.86722576E-05 -1.38323098E-01 -1.18603433E-02  2.08538297E-03 -2.99616733E-03
  9.53383138E-17  1.46933547E-03  1.38325842E-01  1.18604390E-02  2.08536372E-03
  2.99614787E-03  9.45323433E-18 -1.46936255E-03  4.94716348E-01  3.00069839E-02
 -3.05528781E-03 -1.62993639E-03  8.40610166E-17 -4.94870157E-03 -5.02654484E-04
  9.58537614E-05  3.05030980E-05  1.89408913E-03 -2.61677051E-16 -4.94712494E-01
 -3.00068664E-02 -3.05530548E-03  1.62994326E-03 -4.33901112E-16  4.94866935E-03
  5.02658639E-04 -9.58789425E-05  3.05162417E-05 -1.89411418E-03  4.61084409E-16
  1.27751321E-01  1.09536478E-02 -1.93150214E-03 -2.76731739E-03 -4.31687823E-16
 -1.35717727E-03 -1.27751989E-01 -1.09535011E-02 -1.93144504E-03  2.76721371E-03
  2.70848659E-16  1.35718097E-03 -4.56788715E-01 -2.77070341E-02  2.82052643E-03
 -1.50551430E-03  2.61980529E-16  4.56941988E-03  4.56771174E-01  2.77063771E-02
  2.82062993E-03  1.50549971E-03 -1.64463171E-17 -4.56926000E-03 -1.27117939E-01
 -1.09104404E-02  1.85005291E-03 -2.75616080E-03  7.36953982E-16  1.34871883E-03
  1.27119977E-01  1.09104952E-02  1.85003224E-03  2.75614806E-03 -5.39120047E-16
 -1.34873982E-03  4.56876725E-01  2.77010945E-02 -2.82804199E-03 -1.49717329E-03
  9.97045616E-16 -4.56860170E-03 -1.25924332E-02  2.40197291E-03  7.63925849E-04
 -7.54202177E-05 -1.26730721E-15 -4.56872991E-01 -2.77009748E-02 -2.82806081E-03
  1.49717676E-03  5.36736974E-16  4.56857022E-03  1.25926873E-02 -2.40198167E-03
  7.63925986E-04  7.54136918E-05 -1.38081034E-15 -1.37710051E-01 -1.18193149E-02
  2.01018752E-03  2.98598576E-03 -4.97233363E-16  1.46125716E-03  1.37710485E-01
  1.18191384E-02  2.01012347E-03 -2.98587579E-03  1.85962209E-15 -1.46125885E-03
  4.94820004E-01  3.00022414E-02 -3.06234092E-03  1.62209265E-03  1.31675096E-15
 -4.94814257E-03 -4.94800942E-01 -3.00015249E-02 -3.06245445E-03 -1.62207550E-03
  8.61708754E-16  4.94796867E-03 -2.70305246E-01 -1.70439358E-02  1.66995705E-03
 -2.59124854E-03 -7.77849163E-16  2.72462718E-03 -2.70321292E-01 -1.70446761E-02
 -1.66996097E-03 -2.59124586E-03  4.19026755E-16  2.72478546E-03  4.23664569E-01
  1.89017980E-02  3.58614260E-03 -2.15784803E-03 -7.39982463E-16 -4.09569448E-03
 -1.99345642E-02  4.33279442E-03  1.66720043E-03  5.12685372E-05  4.92897492E-16
  4.23662176E-01  1.89018336E-02 -3.58620703E-03 -2.15794416E-03 -8.03314949E-16
 -4.09567929E-03 -1.99364859E-02  4.33319071E-03 -1.66736147E-03  5.11552651E-05
  1.10379126E-15 -2.61348967E-01 -1.64891610E-02  1.61303066E-03  2.50939419E-03
  2.55112333E-16  2.63596727E-03 -2.61383266E-01 -1.64908530E-02 -1.61310787E-03
  2.50944811E-03 -5.22664070E-16  2.63629958E-03  4.10519611E-01  1.83100089E-02
  3.47206858E-03  2.08890558E-03  4.43288312E-16 -3.96803994E-03  4.10525675E-01
  1.83107305E-02 -3.47214243E-03  2.08910611E-03  1.12609678E-16 -3.96811788E-03
  2.72952487E-01  1.69311421E-02 -1.74529233E-03  2.50997136E-03  2.68880435E-16
 -2.70158057E-03  2.72970619E-01  1.69319725E-02  1.74530649E-03  2.50995959E-03
 -3.02729503E-16 -2.70175291E-03 -4.03120854E-01 -1.81280466E-02 -3.49402239E-03
  2.10394300E-03  5.66374031E-16  3.91467065E-03 -3.17834451E-04  6.92496785E-05
  2.66413752E-05 -3.17307387E-03 -1.08196223E-15 -4.03117482E-01 -1.81280447E-02
  3.49410100E-03  2.10404846E-03  7.52650342E-16  3.91464620E-03 -3.18620921E-04
  6.93944360E-05 -2.66946062E-05 -3.17340506E-03 -3.29347729E-16 -2.81443852E-01
 -1.74677224E-02  1.79805705E-03  2.59199493E-03  8.35807478E-17  2.78720604E-03
 -2.81481200E-01 -1.74695472E-02 -1.79813892E-03  2.59204161E-03  6.95687830E-16
  2.78756476E-03  4.16543979E-01  1.87260888E-02  3.60741914E-03  2.17190894E-03
  3.43040623E-16 -4.04441564E-03  4.16548943E-01  1.87267778E-02 -3.60751094E-03
  2.17212469E-03 -2.36248089E-16 -4.04448365E-03 -4.77818191E-01 -2.13520917E-02
  2.72458458E-04  5.70237153E-04  2.76948173E-16  4.57132102E-03  4.77857152E-01
  2.13534742E-02  2.72345466E-04 -5.70524062E-04 -1.53349413E-17 -4.57169394E-03
 -1.34023368E-01 -2.68679216E-03  2.52547649E-03 -2.63865648E-03  4.98793878E-16
  1.20859727E-03 -8.59582511E-05  1.83290327E-05  7.71574891E-06  5.57948391E-03
 -1.05824396E-16  1.34072350E-01  2.68828572E-03  2.52529568E-03  2.63882640E-03
  2.64416664E-18 -1.20906775E-03  8.52069117E-05 -1.82532055E-05  7.69766654E-06
 -5.58003576E-03  1.37069462E-17  4.75452979E-01  2.12466380E-02 -2.71743776E-04
  5.67583422E-04 -2.30665837E-17 -4.54827858E-03 -4.75504876E-01 -2.12483348E-02
 -2.71541827E-04 -5.68007271E-04  3.71340062E-16  4.54877256E-03  1.33332144E-01
  2.67243143E-03 -2.51297215E-03 -2.62548731E-03  2.97125331E-16 -1.20233111E-03
 -1.33408442E-01 -2.67484154E-03 -2.51267459E-03  2.62569153E-03  3.60701472E-16
  1.20306617E-03 -4.74987433E-01 -2.12417103E-02  1.65319874E-04  5.03548006E-04
 -3.63165395E-16  4.62841095E-03  4.75016153E-01  2.12426816E-02  1.65203757E-04
 -5.03731921E-04  5.33451868E-16 -4.62869924E-03 -1.33016401E-01 -2.60560214E-03
  2.50501076E-03 -2.65405163E-03 -5.17528644E-16  1.20095361E-03 -3.44178269E-02
  7.39969448E-03  3.10904051E-03 -1.37982636E-05  5.83788805E-16  1.33053304E-01
  2.60672860E-03  2.50486760E-03  2.65418675E-03 -3.94003459E-16 -1.20131122E-03
  3.44218603E-02 -7.40029105E-03  3.10926140E-03  1.39561744E-05 -8.23793503E-16
 -4.77344598E-01 -2.13473663E-02  1.66776884E-04 -5.06191208E-04  4.06331297E-16
  4.65096699E-03  4.77398599E-01  2.13491697E-02  1.66568728E-04  5.06571951E-04
  7.19345323E-16 -4.65149048E-03 -1.33646501E-01 -2.61742240E-03  2.51747771E-03
  2.66711806E-03  6.87465840E-16  1.20660848E-03  1.33719457E-01  2.61967951E-03
  2.51720669E-03 -2.66734561E-03 -1.43015389E-15 -1.20731307E-03  4.10431726E-01
  1.67594851E-02  4.43549997E-04 -1.48672067E-03  1.34822236E-15 -3.97415117E-03
  4.10380113E-01  1.67571378E-02 -4.43596409E-04 -1.48668856E-03  7.06813645E-17
 -3.97365977E-03  2.78354971E-01  6.59817931E-03  3.22338527E-04  2.03886447E-03
 -3.33753519E-16 -2.64959148E-03  3.71768477E-05 -5.97098481E-06 -2.24282948E-06
 -4.89327835E-03 -9.31315254E-16  2.78344854E-01  6.59814240E-03 -3.22587233E-04
  2.03857531E-03  3.35059099E-16 -2.64950688E-03  3.86169629E-05 -6.30398064E-06
  2.38711911E-06 -4.89243003E-03 -6.96279578E-16 -4.09622611E-01 -1.67273430E-02
 -4.42046974E-04 -1.48399294E-03 -2.53294319E-16  3.96611510E-03 -4.09530149E-01
 -1.67230809E-02  4.42138622E-04 -1.48394818E-03  1.32809783E-15  3.96521853E-03
 -2.77767676E-01 -6.58381805E-03 -3.21385272E-04  2.03473389E-03  8.85539246E-16
  2.64394091E-03 -2.77753010E-01 -6.58395746E-03  3.21791804E-04  2.03420946E-03
 -6.26987973E-16  2.64382464E-03  4.16077554E-01  1.68994448E-02  6.44124175E-04
 -1.21401395E-03 -1.85312341E-16 -4.13424786E-03  4.16027070E-01  1.68971466E-02
 -6.44151200E-04 -1.21399239E-03  7.76170005E-16 -4.13375357E-03  2.66768747E-01
  6.05325207E-03  2.57747380E-04  2.16634609E-03 -5.28357677E-16 -2.56183434E-03
  3.74634605E-02 -6.20326922E-03 -2.33415549E-03  5.26067683E-06  7.06740020E-17