naphtalene                                                              
Freq      RTD-FC                                                      6-31G(d)            
Number of atoms                            I               18
Info1-9                                    I   N=           9
          29          29        1001           0           0         101
           6         201           1
Charge                                     I                0
Multiplicity                               I                1
Number of electrons                        I               68
Number of alpha electrons                  I               34
Number of beta electrons                   I               34
Number of basis functions                  I              166
Number of independent functions            I              166
Number of point charges in /Mol/           I                0
Number of translation vectors              I                0
Atomic numbers                             I   N=          18
           6           1           6           1           6           1
           6           6           1           6           6           1
           6           1           6           1           6           1
Nuclear charges                            R   N=          18
  6.00000000E+00  1.00000000E+00  6.00000000E+00  1.00000000E+00  6.00000000E+00
  1.00000000E+00  6.00000000E+00  6.00000000E+00  1.00000000E+00  6.00000000E+00
  6.00000000E+00  1.00000000E+00  6.00000000E+00  1.00000000E+00  6.00000000E+00
  1.00000000E+00  6.00000000E+00  1.00000000E+00
Current cartesian coordinates              R   N=          54
  2.62964462E+00 -3.94737333E-01  0.00000000E+00  4.66192980E+00 -3.68993594E-01
  0.00000000E+00 -2.62964462E+00 -3.94741112E-01  0.00000000E+00 -4.66193169E+00
 -3.68999263E-01  0.00000000E+00  1.28977966E+00  1.93800864E+00  0.00000000E+00
  2.33321462E+00  3.67977677E+00  0.00000000E+00  1.37089615E+00 -2.72096186E+00
  0.00000000E+00 -1.28978155E+00  1.93800675E+00  0.00000000E+00 -2.33322029E+00
  3.67977299E+00  0.00000000E+00 -1.37089426E+00 -2.72096375E+00  0.00000000E+00
  2.62964840E+00 -5.04718449E+00  0.00000000E+00  4.66193358E+00 -5.07292634E+00
  0.00000000E+00 -2.62964273E+00 -5.04718827E+00  0.00000000E+00 -4.66192791E+00
 -5.07293201E+00  0.00000000E+00  1.28978533E+00 -7.37993424E+00  0.00000000E+00
  2.33322407E+00 -9.12169859E+00  0.00000000E+00 -1.28977588E+00 -7.37993613E+00
  0.00000000E+00 -2.33321462E+00 -9.12170237E+00  0.00000000E+00
Number of symbols in /Mol/                 I                0
Force Field                                I                0
Atom Types                                 C   N=          18
                                                            
                                                            
                                                            
                                    
Int Atom Types                             I   N=          18
           0           0           0           0           0           0
           0           0           0           0           0           0
           0           0           0           0           0           0
MM charges                                 R   N=          18
  0.00000000E+00  0.00000000E+00  0.00000000E+00  0.00000000E+00  0.00000000E+00
  0.00000000E+00  0.00000000E+00  0.00000000E+00  0.00000000E+00  0.00000000E+00
  0.00000000E+00  0.00000000E+00  0.00000000E+00  0.00000000E+00  0.00000000E+00
  0.00000000E+00  0.00000000E+00  0.00000000E+00
Integer atomic weights                     I   N=          18
          12           1          12           1          12           1
          12          12           1          12          12           1
          12           1          12           1          12           1
Real atomic weights                        R   N=          18
  1.20000000E+01  1.00782504E+00  1.20000000E+01  1.00782504E+00  1.20000000E+01
  1.00782504E+00  1.20000000E+01  1.20000000E+01  1.00782504E+00  1.20000000E+01
  1.20000000E+01  1.00782504E+00  1.20000000E+01  1.00782504E+00  1.20000000E+01
  1.00782504E+00  1.20000000E+01  1.00782504E+00
Atom fragment info                         I   N=          18
           0           0           0           0           0           0
           0           0           0           0           0           0
           0           0           0           0           0           0
Atom residue num                           I   N=          18
           0           0           0           0           0           0
           0           0           0           0           0           0
           0           0           0           0           0           0
Nuclear spins                              I   N=          18
           0           1           0           1           0           1
           0           0           1           0           0           1
           0           1           0           1           0           1
Nuclear ZEff                               R   N=          18
 -3.60000000E+00 -1.00000000E+00 -3.60000000E+00 -1.00000000E+00 -3.60000000E+00
 -1.00000000E+00 -3.60000000E+00 -3.60000000E+00 -1.00000000E+00 -3.60000000E+00
 -3.60000000E+00 -1.00000000E+00 -3.60000000E+00 -1.00000000E+00 -3.60000000E+00
 -1.00000000E+00 -3.60000000E+00 -1.00000000E+00
Nuclear QMom                               R   N=          18
  0.00000000E+00  0.00000000E+00  0.00000000E+00  0.00000000E+00  0.00000000E+00
  0.00000000E+00  0.00000000E+00  0.00000000E+00  0.00000000E+00  0.00000000E+00
  0.00000000E+00  0.00000000E+00  0.00000000E+00  0.00000000E+00  0.00000000E+00
  0.00000000E+00  0.00000000E+00  0.00000000E+00
Nuclear GFac                               R   N=          18
  0.00000000E+00  2.79284600E+00  0.00000000E+00  2.79284600E+00  0.00000000E+00
  2.79284600E+00  0.00000000E+00  0.00000000E+00  2.79284600E+00  0.00000000E+00
  0.00000000E+00  2.79284600E+00  0.00000000E+00  2.79284600E+00  0.00000000E+00
  2.79284600E+00  0.00000000E+00  2.79284600E+00
MicOpt                                     I   N=          18
          -1          -1          -1          -1          -1          -1
          -1          -1          -1          -1          -1          -1
          -1          -1          -1          -1          -1          -1
Number of residues                         I                0
Number of secondary structures             I                0
Number of contracted shells                I               56
Number of primitive shells                 I              142
Pure/Cartesian d shells                    I                1
Pure/Cartesian f shells                    I                0
Highest angular momentum                   I                2
Largest degree of contraction              I                6
Shell types                                I   N=          56
           0          -1          -1           2           0           0
           0          -1          -1           2           0           0
           0          -1          -1           2           0           0
           0          -1          -1           2           0          -1
          -1           2           0           0           0          -1
          -1           2           0          -1          -1           2
           0           0           0          -1          -1           2
           0           0           0          -1          -1           2
           0           0           0          -1          -1           2
           0           0
Number of primitives per shell             I   N=          56
           6           3           1           1           3           1
           6           3           1           1           3           1
           6           3           1           1           3           1
           6           3           1           1           6           3
           1           1           3           1           6           3
           1           1           6           3           1           1
           3           1           6           3           1           1
           3           1           6           3           1           1
           3           1           6           3           1           1
           3           1
Shell to atom map                          I   N=          56
           1           1           1           1           2           2
           3           3           3           3           4           4
           5           5           5           5           6           6
           7           7           7           7           8           8
           8           8           9           9          10          10
          10          10          11          11          11          11
          12          12          13          13          13          13
          14          14          15          15          15          15
          16          16          17          17          17          17
          18          18
Primitive exponents                        R   N=         142
  3.04752488E+03  4.57369518E+02  1.03948685E+02  2.92101553E+01  9.28666296E+00
  3.16392696E+00  7.86827235E+00  1.88128854E+00  5.44249258E-01  1.68714478E-01
  8.00000000E-01  1.87311370E+01  2.82539436E+00  6.40121692E-01  1.61277759E-01
  3.04752488E+03  4.57369518E+02  1.03948685E+02  2.92101553E+01  9.28666296E+00
  3.16392696E+00  7.86827235E+00  1.88128854E+00  5.44249258E-01  1.68714478E-01
  8.00000000E-01  1.87311370E+01  2.82539436E+00  6.40121692E-01  1.61277759E-01
  3.04752488E+03  4.57369518E+02  1.03948685E+02  2.92101553E+01  9.28666296E+00
  3.16392696E+00  7.86827235E+00  1.88128854E+00  5.44249258E-01  1.68714478E-01
  8.00000000E-01  1.87311370E+01  2.82539436E+00  6.40121692E-01  1.61277759E-01
  3.04752488E+03  4.57369518E+02  1.03948685E+02  2.92101553E+01  9.28666296E+00
  3.16392696E+00  7.86827235E+00  1.88128854E+00  5.44249258E-01  1.68714478E-01
  8.00000000E-01  3.04752488E+03  4.57369518E+02  1.03948685E+02  2.92101553E+01
  9.28666296E+00  3.16392696E+00  7.86827235E+00  1.88128854E+00  5.44249258E-01
  1.68714478E-01  8.00000000E-01  1.87311370E+01  2.82539436E+00  6.40121692E-01
  1.61277759E-01  3.04752488E+03  4.57369518E+02  1.03948685E+02  2.92101553E+01
  9.28666296E+00  3.16392696E+00  7.86827235E+00  1.88128854E+00  5.44249258E-01
  1.68714478E-01  8.00000000E-01  3.04752488E+03  4.57369518E+02  1.03948685E+02
  2.92101553E+01  9.28666296E+00  3.16392696E+00  7.86827235E+00  1.88128854E+00
  5.44249258E-01  1.68714478E-01  8.00000000E-01  1.87311370E+01  2.82539436E+00
  6.40121692E-01  1.61277759E-01  3.04752488E+03  4.57369518E+02  1.03948685E+02
  2.92101553E+01  9.28666296E+00  3.16392696E+00  7.86827235E+00  1.88128854E+00
  5.44249258E-01  1.68714478E-01  8.00000000E-01  1.87311370E+01  2.82539436E+00
  6.40121692E-01  1.61277759E-01  3.04752488E+03  4.57369518E+02  1.03948685E+02
  2.92101553E+01  9.28666296E+00  3.16392696E+00  7.86827235E+00  1.88128854E+00
  5.44249258E-01  1.68714478E-01  8.00000000E-01  1.87311370E+01  2.82539436E+00
  6.40121692E-01  1.61277759E-01  3.04752488E+03  4.57369518E+02  1.03948685E+02
  2.92101553E+01  9.28666296E+00  3.16392696E+00  7.86827235E+00  1.88128854E+00
  5.44249258E-01  1.68714478E-01  8.00000000E-01  1.87311370E+01  2.82539436E+00
  6.40121692E-01  1.61277759E-01
Contraction coefficients                   R   N=         142
  1.83473713E-03  1.40373228E-02  6.88426223E-02  2.32184443E-01  4.67941348E-01
  3.62311985E-01 -1.19332420E-01 -1.60854152E-01  1.14345644E+00  1.00000000E+00
  1.00000000E+00  3.34946043E-02  2.34726953E-01  8.13757326E-01  1.00000000E+00
  1.83473713E-03  1.40373228E-02  6.88426223E-02  2.32184443E-01  4.67941348E-01
  3.62311985E-01 -1.19332420E-01 -1.60854152E-01  1.14345644E+00  1.00000000E+00
  1.00000000E+00  3.34946043E-02  2.34726953E-01  8.13757326E-01  1.00000000E+00
  1.83473713E-03  1.40373228E-02  6.88426223E-02  2.32184443E-01  4.67941348E-01
  3.62311985E-01 -1.19332420E-01 -1.60854152E-01  1.14345644E+00  1.00000000E+00
  1.00000000E+00  3.34946043E-02  2.34726953E-01  8.13757326E-01  1.00000000E+00
  1.83473713E-03  1.40373228E-02  6.88426223E-02  2.32184443E-01  4.67941348E-01
  3.62311985E-01 -1.19332420E-01 -1.60854152E-01  1.14345644E+00  1.00000000E+00
  1.00000000E+00  1.83473713E-03  1.40373228E-02  6.88426223E-02  2.32184443E-01
  4.67941348E-01  3.62311985E-01 -1.19332420E-01 -1.60854152E-01  1.14345644E+00
  1.00000000E+00  1.00000000E+00  3.34946043E-02  2.34726953E-01  8.13757326E-01
  1.00000000E+00  1.83473713E-03  1.40373228E-02  6.88426223E-02  2.32184443E-01
  4.67941348E-01  3.62311985E-01 -1.19332420E-01 -1.60854152E-01  1.14345644E+00
  1.00000000E+00  1.00000000E+00  1.83473713E-03  1.40373228E-02  6.88426223E-02
  2.32184443E-01  4.67941348E-01  3.62311985E-01 -1.19332420E-01 -1.60854152E-01
  1.14345644E+00  1.00000000E+00  1.00000000E+00  3.34946043E-02  2.34726953E-01
  8.13757326E-01  1.00000000E+00  1.83473713E-03  1.40373228E-02  6.88426223E-02
  2.32184443E-01  4.67941348E-01  3.62311985E-01 -1.19332420E-01 -1.60854152E-01
  1.14345644E+00  1.00000000E+00  1.00000000E+00  3.34946043E-02  2.34726953E-01
  8.13757326E-01  1.00000000E+00  1.83473713E-03  1.40373228E-02  6.88426223E-02
  2.32184443E-01  4.67941348E-01  3.62311985E-01 -1.19332420E-01 -1.60854152E-01
  1.14345644E+00  1.00000000E+00  1.00000000E+00  3.34946043E-02  2.34726953E-01
  8.13757326E-01  1.00000000E+00  1.83473713E-03  1.40373228E-02  6.88426223E-02
  2.32184443E-01  4.67941348E-01  3.62311985E-01 -1.19332420E-01 -1.60854152E-01
  1.14345644E+00  1.00000000E+00  1.00000000E+00  3.34946043E-02  2.34726953E-01
  8.13757326E-01  1.00000000E+00
P(S=P) Contraction coefficients            R   N=         142
  0.00000000E+00  0.00000000E+00  0.00000000E+00  0.00000000E+00  0.00000000E+00
  0.00000000E+00  6.89990666E-02  3.16423961E-01  7.44308291E-01  1.00000000E+00
  0.00000000E+00  0.00000000E+00  0.00000000E+00  0.00000000E+00  0.00000000E+00
  0.00000000E+00  0.00000000E+00  0.00000000E+00  0.00000000E+00  0.00000000E+00
  0.00000000E+00  6.89990666E-02  3.16423961E-01  7.44308291E-01  1.00000000E+00
  0.00000000E+00  0.00000000E+00  0.00000000E+00  0.00000000E+00  0.00000000E+00
  0.00000000E+00  0.00000000E+00  0.00000000E+00  0.00000000E+00  0.00000000E+00
  0.00000000E+00  6.89990666E-02  3.16423961E-01  7.44308291E-01  1.00000000E+00
  0.00000000E+00  0.00000000E+00  0.00000000E+00  0.00000000E+00  0.00000000E+00
  0.00000000E+00  0.00000000E+00  0.00000000E+00  0.00000000E+00  0.00000000E+00
  0.00000000E+00  6.89990666E-02  3.16423961E-01  7.44308291E-01  1.00000000E+00
  0.00000000E+00  0.00000000E+00  0.00000000E+00  0.00000000E+00  0.00000000E+00
  0.00000000E+00  0.00000000E+00  6.89990666E-02  3.16423961E-01  7.44308291E-01
  1.00000000E+00  0.00000000E+00  0.00000000E+00  0.00000000E+00  0.00000000E+00
  0.00000000E+00  0.00000000E+00  0.00000000E+00  0.00000000E+00  0.00000000E+00
  0.00000000E+00  0.00000000E+00  6.89990666E-02  3.16423961E-01  7.44308291E-01
  1.00000000E+00  0.00000000E+00  0.00000000E+00  0.00000000E+00  0.00000000E+00
  0.00000000E+00  0.00000000E+00  0.00000000E+00  6.89990666E-02  3.16423961E-01
  7.44308291E-01  1.00000000E+00  0.00000000E+00  0.00000000E+00  0.00000000E+00
  0.00000000E+00  0.00000000E+00  0.00000000E+00  0.00000000E+00  0.00000000E+00
  0.00000000E+00  0.00000000E+00  0.00000000E+00  6.89990666E-02  3.16423961E-01
  7.44308291E-01  1.00000000E+00  0.00000000E+00  0.00000000E+00  0.00000000E+00
  0.00000000E+00  0.00000000E+00  0.00000000E+00  0.00000000E+00  0.00000000E+00
  0.00000000E+00  0.00000000E+00  0.00000000E+00  6.89990666E-02  3.16423961E-01
  7.44308291E-01  1.00000000E+00  0.00000000E+00  0.00000000E+00  0.00000000E+00
  0.00000000E+00  0.00000000E+00  0.00000000E+00  0.00000000E+00  0.00000000E+00
  0.00000000E+00  0.00000000E+00  0.00000000E+00  6.89990666E-02  3.16423961E-01
  7.44308291E-01  1.00000000E+00  0.00000000E+00  0.00000000E+00  0.00000000E+00
  0.00000000E+00  0.00000000E+00
Coordinates of each shell                  R   N=         168
  2.62964462E+00 -3.94737333E-01  0.00000000E+00  2.62964462E+00 -3.94737333E-01
  0.00000000E+00  2.62964462E+00 -3.94737333E-01  0.00000000E+00  2.62964462E+00
 -3.94737333E-01  0.00000000E+00  4.66192980E+00 -3.68993594E-01  0.00000000E+00
  4.66192980E+00 -3.68993594E-01  0.00000000E+00 -2.62964462E+00 -3.94741112E-01
  0.00000000E+00 -2.62964462E+00 -3.94741112E-01  0.00000000E+00 -2.62964462E+00
 -3.94741112E-01  0.00000000E+00 -2.62964462E+00 -3.94741112E-01  0.00000000E+00
 -4.66193169E+00 -3.68999263E-01  0.00000000E+00 -4.66193169E+00 -3.68999263E-01
  0.00000000E+00  1.28977966E+00  1.93800864E+00  0.00000000E+00  1.28977966E+00
  1.93800864E+00  0.00000000E+00  1.28977966E+00  1.93800864E+00  0.00000000E+00
  1.28977966E+00  1.93800864E+00  0.00000000E+00  2.33321462E+00  3.67977677E+00
  0.00000000E+00  2.33321462E+00  3.67977677E+00  0.00000000E+00  1.37089615E+00
 -2.72096186E+00  0.00000000E+00  1.37089615E+00 -2.72096186E+00  0.00000000E+00
  1.37089615E+00 -2.72096186E+00  0.00000000E+00  1.37089615E+00 -2.72096186E+00
  0.00000000E+00 -1.28978155E+00  1.93800675E+00  0.00000000E+00 -1.28978155E+00
  1.93800675E+00  0.00000000E+00 -1.28978155E+00  1.93800675E+00  0.00000000E+00
 -1.28978155E+00  1.93800675E+00  0.00000000E+00 -2.33322029E+00  3.67977299E+00
  0.00000000E+00 -2.33322029E+00  3.67977299E+00  0.00000000E+00 -1.37089426E+00
 -2.72096375E+00  0.00000000E+00 -1.37089426E+00 -2.72096375E+00  0.00000000E+00
 -1.37089426E+00 -2.72096375E+00  0.00000000E+00 -1.37089426E+00 -2.72096375E+00
  0.00000000E+00  2.62964840E+00 -5.04718449E+00  0.00000000E+00  2.62964840E+00
 -5.04718449E+00  0.00000000E+00  2.62964840E+00 -5.04718449E+00  0.00000000E+00
  2.62964840E+00 -5.04718449E+00  0.00000000E+00  4.66193358E+00 -5.07292634E+00
  0.00000000E+00  4.66193358E+00 -5.07292634E+00  0.00000000E+00 -2.62964273E+00
 -5.04718827E+00  0.00000000E+00 -2.62964273E+00 -5.04718827E+00  0.00000000E+00
 -2.62964273E+00 -5.04718827E+00  0.00000000E+00 -2.62964273E+00 -5.04718827E+00
  0.00000000E+00 -4.66192791E+00 -5.07293201E+00  0.00000000E+00 -4.66192791E+00
 -5.07293201E+00  0.00000000E+00  1.28978533E+00 -7.37993424E+00  0.00000000E+00
  1.28978533E+00 -7.37993424E+00  0.00000000E+00  1.28978533E+00 -7.37993424E+00
  0.00000000E+00  1.28978533E+00 -7.37993424E+00  0.00000000E+00  2.33322407E+00
 -9.12169859E+00  0.00000000E+00  2.33322407E+00 -9.12169859E+00  0.00000000E+00
 -1.28977588E+00 -7.37993613E+00  0.00000000E+00 -1.28977588E+00 -7.37993613E+00
  0.00000000E+00 -1.28977588E+00 -7.37993613E+00  0.00000000E+00 -1.28977588E+00
 -7.37993613E+00  0.00000000E+00 -2.33321462E+00 -9.12170237E+00  0.00000000E+00
 -2.33321462E+00 -9.12170237E+00  0.00000000E+00
Constraint Structure                       R   N=          54
  2.62964462E+00 -3.94737333E-01  0.00000000E+00  4.66192980E+00 -3.68993594E-01
  0.00000000E+00 -2.62964462E+00 -3.94741112E-01  0.00000000E+00 -4.66193169E+00
 -3.68999263E-01  0.00000000E+00  1.28977966E+00  1.93800864E+00  0.00000000E+00
  2.33321462E+00  3.67977677E+00  0.00000000E+00  1.37089615E+00 -2.72096186E+00
  0.00000000E+00 -1.28978155E+00  1.93800675E+00  0.00000000E+00 -2.33322029E+00
  3.67977299E+00  0.00000000E+00 -1.37089426E+00 -2.72096375E+00  0.00000000E+00
  2.62964840E+00 -5.04718449E+00  0.00000000E+00  4.66193358E+00 -5.07292634E+00
  0.00000000E+00 -2.62964273E+00 -5.04718827E+00  0.00000000E+00 -4.66192791E+00
 -5.07293201E+00  0.00000000E+00  1.28978533E+00 -7.37993424E+00  0.00000000E+00
  2.33322407E+00 -9.12169859E+00  0.00000000E+00 -1.28977588E+00 -7.37993613E+00
  0.00000000E+00 -2.33321462E+00 -9.12170237E+00  0.00000000E+00
Num ILSW                                   I              100
ILSW                                       I   N=         100
           0           1           0           0           2           0
           0           0           3           0           0          -1
           0           0           0           0           2           0
           0           0           0           0           1           0
           1           1           0           0           0           0
           0           0      100000           0          -1           0
           0           0           0           0           0           0
           0           0           0           1           0           0
           0           0           1           0           0           0
           0           0           4          40           0           0
           0           0           0           0           0           0
           0           0           0           0           0           0
           0           0           0           0           0           0
           0           0           0           0           0           0
           0           0           0           0           0           0
           0           0           0           0           0           0
           0           0           0           0
Num RLSW                                   I               40
RLSW                                       R   N=          40
  1.00000000E+00  1.00000000E+00  1.00000000E+00  1.00000000E+00  1.00000000E+00
  0.00000000E+00  0.00000000E+00  1.00000000E+00  0.00000000E+00  0.00000000E+00
  0.00000000E+00  0.00000000E+00  1.00000000E+00  0.00000000E+00  0.00000000E+00
  0.00000000E+00  0.00000000E+00  1.00000000E+00  0.00000000E+00  0.00000000E+00
  0.00000000E+00  0.00000000E+00  1.00000000E+00  0.00000000E+00  0.00000000E+00
  0.00000000E+00  0.00000000E+00  1.00000000E+00  0.00000000E+00  0.00000000E+00
  0.00000000E+00  0.00000000E+00  1.00000000E+00  0.00000000E+00  0.00000000E+00
  0.00000000E+00  0.00000000E+00  0.00000000E+00  1.00000000E+00  1.00000000E+00
MxBond                                     I                3
NBond                                      I   N=          18
           3           1           3           1           3           1
           3           3           1           3           3           1
           3           1           3           1           3           1
IBond                                      I   N=          54
           2           5           7           1           0           0
           4           8          10           3           0           0
           1           6           8           5           0           0
           1          10          11           3           5           9
           8           0           0           3           7          13
           7          12          15          11           0           0
          10          14          17          13           0           0
          11          16          17          15           0           0
          13          15          18          17           0           0
RBond                                      R   N=          54
  1.00000000E+00  1.50000000E+00  1.50000000E+00  1.00000000E+00  0.00000000E+00
  0.00000000E+00  1.00000000E+00  1.50000000E+00  1.50000000E+00  1.00000000E+00
  0.00000000E+00  0.00000000E+00  1.50000000E+00  1.00000000E+00  2.00000000E+00
  1.00000000E+00  0.00000000E+00  0.00000000E+00  1.50000000E+00  1.00000000E+00
  1.50000000E+00  1.50000000E+00  2.00000000E+00  1.00000000E+00  1.00000000E+00
  0.00000000E+00  0.00000000E+00  1.50000000E+00  1.00000000E+00  1.50000000E+00
  1.50000000E+00  1.00000000E+00  1.50000000E+00  1.00000000E+00  0.00000000E+00
  0.00000000E+00  1.50000000E+00  1.00000000E+00  1.50000000E+00  1.00000000E+00
  0.00000000E+00  0.00000000E+00  1.50000000E+00  1.00000000E+00  2.00000000E+00
  1.00000000E+00  0.00000000E+00  0.00000000E+00  1.50000000E+00  2.00000000E+00
  1.00000000E+00  1.00000000E+00  0.00000000E+00  0.00000000E+00
Virial Ratio                               R      2.001650740749900E+00
SCF Energy                                 R     -3.833372411103954E+02
CIS Energy                                 R     -3.831828413292504E+02
Total Energy                               R     -3.831828413292504E+02
Post-SCF wavefunction norm                 R      1.000000000000000E+00
RMS Force                                  R      1.216866783306548E-06
RMS Density                                R      9.693303712270168E-10
External E-field                           R   N=          35
  0.00000000E+00  0.00000000E+00  0.00000000E+00  0.00000000E+00  0.00000000E+00
  0.00000000E+00  0.00000000E+00  0.00000000E+00  0.00000000E+00  0.00000000E+00
  0.00000000E+00  0.00000000E+00  0.00000000E+00  0.00000000E+00  0.00000000E+00
  0.00000000E+00  0.00000000E+00  0.00000000E+00  0.00000000E+00  0.00000000E+00
  0.00000000E+00  0.00000000E+00  0.00000000E+00  0.00000000E+00  0.00000000E+00
  0.00000000E+00  0.00000000E+00  0.00000000E+00  0.00000000E+00  0.00000000E+00
  0.00000000E+00  0.00000000E+00  0.00000000E+00  0.00000000E+00  0.00000000E+00
IOpCl                                      I                0
IROHF                                      I                0
Alpha Orbital Energies                     R   N=         166
 -1.12407178E+01 -1.12398790E+01 -1.12371976E+01 -1.12371626E+01 -1.12370295E+01
 -1.12369187E+01 -1.12352475E+01 -1.12352360E+01 -1.12339683E+01 -1.12339636E+01
 -1.16928944E+00 -1.10233347E+00 -1.04382111E+00 -1.01381487E+00 -9.61443465E-01
 -8.63678399E-01 -8.25436198E-01 -8.05762026E-01 -7.08589177E-01 -6.95208647E-01
 -6.71462282E-01 -6.23051985E-01 -6.10957383E-01 -5.79955850E-01 -5.76342390E-01
 -5.49481092E-01 -5.32748322E-01 -5.25549819E-01 -4.81388219E-01 -4.74571667E-01
 -4.40059852E-01 -3.78461535E-01 -3.20874279E-01 -2.63987908E-01  7.91174759E-02
  1.34259131E-01  1.93918606E-01  2.41676536E-01  2.60217986E-01  2.68651049E-01
  2.83327691E-01  3.09969918E-01  3.18495997E-01  3.21831474E-01  3.39942103E-01
  3.59572398E-01  4.15550407E-01  4.25386702E-01  4.37583901E-01  4.85011141E-01
  4.90893933E-01  4.96103224E-01  5.05363328E-01  5.57623366E-01  6.82891593E-01
  7.08239439E-01  7.28073032E-01  7.29920538E-01  7.42572618E-01  7.44334064E-01
  7.44555383E-01  7.79253903E-01  7.98768711E-01  8.07621479E-01  8.25440877E-01
  8.28654188E-01  8.31937095E-01  8.41567937E-01  8.42202878E-01  8.55718629E-01
  8.60790607E-01  8.66491231E-01  8.69394601E-01  9.24444295E-01  9.28576416E-01
  9.42315141E-01  1.00314412E+00  1.08594257E+00  1.09332053E+00  1.10259237E+00
  1.11616895E+00  1.12202549E+00  1.12844959E+00  1.13660775E+00  1.16314443E+00
  1.16329300E+00  1.18903305E+00  1.19870549E+00  1.20335124E+00  1.24560754E+00
  1.24930196E+00  1.26260447E+00  1.28993864E+00  1.29805616E+00  1.34558932E+00
  1.40639410E+00  1.44476593E+00  1.46101444E+00  1.49474638E+00  1.51585246E+00
  1.53439639E+00  1.56481774E+00  1.66105567E+00  1.67783196E+00  1.70960968E+00
  1.72907695E+00  1.73329167E+00  1.75196373E+00  1.76589013E+00  1.77174498E+00
  1.78020072E+00  1.78875275E+00  1.79268187E+00  1.97659381E+00  2.10080523E+00
  2.11024016E+00  2.16937651E+00  2.18159050E+00  2.18862887E+00  2.19713779E+00
  2.22836008E+00  2.27647492E+00  2.28418359E+00  2.28530611E+00  2.28596012E+00
  2.37032600E+00  2.38532041E+00  2.43073690E+00  2.44702295E+00  2.47351761E+00
  2.47495229E+00  2.49789427E+00  2.55042812E+00  2.58766490E+00  2.62688608E+00
  2.63899381E+00  2.65898102E+00  2.68481714E+00  2.69842438E+00  2.74288297E+00
  2.92928417E+00  2.92952225E+00  2.96212725E+00  2.97114934E+00  2.99880122E+00
  3.00312472E+00  3.07377608E+00  3.11070210E+00  3.12559273E+00  3.19036514E+00
  3.20739490E+00  3.25029600E+00  3.30299318E+00  3.45811304E+00  3.73972730E+00
  3.85765460E+00  4.50807474E+00  4.51921503E+00  4.53907575E+00  4.55707252E+00
  4.56401582E+00  4.69849572E+00  4.77491627E+00  4.82662254E+00  4.94208774E+00
  5.23471618E+00
Alpha MO coefficients                      R   N=       27556
  1.05978834E-01  2.79298267E-03  8.06144948E-05  1.00689413E-04  1.32944531E-17
  1.05118505E-03 -2.91414878E-04 -8.07507867E-04 -3.91305523E-17 -3.68074342E-04
 -4.48283093E-04 -3.31270882E-04 -7.40762664E-05  5.49973579E-18  5.94368764E-17
 -5.74406739E-05  1.29819075E-04  1.05976106E-01  2.79290880E-03 -8.06110216E-05
  1.00683659E-04  2.99213851E-18  1.05103042E-03  2.91354118E-04 -8.07470252E-04
  1.40877370E-17 -3.68054959E-04 -4.48258908E-04 -3.31260177E-04  7.40698487E-05
 -5.80905346E-18 -5.60822905E-17 -5.74394465E-05  1.29811829E-04  8.69642841E-03
  1.20336217E-04  1.22343505E-05  5.42640740E-05 -9.78283610E-18  2.07752859E-04
  6.63471870E-06 -2.18098052E-04  2.48445681E-17 -3.00014941E-05  1.81455707E-06
 -6.87532853E-05  8.58979819E-06 -5.52668021E-17  3.17433735E-17  9.23306918E-07
  1.37223406E-04  6.87560047E-01  1.91655423E-02  5.93079454E-05  1.33849628E-09
 -4.23866273E-17 -6.11315807E-03 -7.22310238E-04 -1.30634080E-08  8.69902031E-17
 -1.59041110E-03 -1.23056142E-03 -1.71061315E-03  2.59296725E-10  8.04678917E-17
  1.11933199E-17  8.69623370E-03  1.20328918E-04 -1.22349525E-05  5.42643724E-05
  1.06196227E-17  2.07832407E-04 -6.60421085E-06 -2.18135502E-04 -2.11198315E-17
 -3.00016545E-05  1.81168018E-06 -6.87545365E-05 -8.58996486E-06 -5.82923626E-17
 -3.32293027E-17  9.24961612E-07  1.37232863E-04  6.87526522E-01  1.91646033E-02
 -5.93123736E-05  1.15449898E-09 -1.68858433E-18 -6.11249470E-03  7.22409525E-04
 -8.95266321E-10 -4.61451047E-17 -1.59037492E-03 -1.23052177E-03 -1.71054051E-03
 -7.74792289E-10  7.81980785E-17 -6.25931767E-18  1.05983338E-01  2.79310733E-03
  8.06141225E-05 -1.00688600E-04 -6.15544387E-19  1.05112086E-03 -2.91406299E-04
  8.07502985E-04 -3.22642411E-17 -3.68082582E-04 -4.48290223E-04 -3.31281061E-04
  7.40763504E-05 -1.46946441E-17 -4.66543117E-17 -5.74415198E-05  1.29826387E-04