naphtalene                                                              
Freq      RTD-FC                                                      6-31G(d)            
Number of atoms                            I               18
Info1-9                                    I   N=           9
           6           6        1001           0           0         101
           6         201           1
Charge                                     I                0
Multiplicity                               I                1
Number of electrons                        I               68
Number of alpha electrons                  I               34
Number of beta electrons                   I               34
Number of basis functions                  I              166
Number of independent functions            I              166
Number of point charges in /Mol/           I                0
Number of translation vectors              I                0
Atomic numbers                             I   N=          18
           6           1           6           1           6           1
           6           6           1           6           6           1
           6           1           6           1           6           1
Nuclear charges                            R   N=          18
  6.00000000E+00  1.00000000E+00  6.00000000E+00  1.00000000E+00  6.00000000E+00
  1.00000000E+00  6.00000000E+00  6.00000000E+00  1.00000000E+00  6.00000000E+00
  6.00000000E+00  1.00000000E+00  6.00000000E+00  1.00000000E+00  6.00000000E+00
  1.00000000E+00  6.00000000E+00  1.00000000E+00
Current cartesian coordinates              R   N=          54
  2.66442709E+00 -3.85672489E-01  9.69933835E-10  4.69683989E+00 -3.58500208E-01
 -3.49514663E-09 -2.66442778E+00 -3.85675680E-01 -9.62098522E-10 -4.69684062E+00
 -3.58505829E-01  3.46833619E-09  1.33065544E+00  1.88395995E+00 -2.77105593E-09
  2.33887728E+00  3.64564517E+00 -1.21347052E-09  1.41684142E+00 -2.72096261E+00
  1.79490013E-11 -1.33065885E+00  1.88395835E+00  2.78375310E-09 -2.33888280E+00
  3.64564237E+00  1.14807702E-09 -1.41683932E+00 -2.72096431E+00  9.83753741E-11
  2.66442884E+00 -5.05625070E+00  1.72138252E-09  4.69684162E+00 -5.08341930E+00
  1.01335279E-09 -2.66442394E+00 -5.05625389E+00 -1.67816967E-09 -4.69683670E+00
 -5.08342492E+00 -1.02850343E-09  1.33066047E+00 -7.32588473E+00  2.01766810E-10
  2.33888362E+00 -9.08756908E+00  4.53122596E-09 -1.33065286E+00 -7.32588632E+00
 -1.98889999E-10 -2.33887390E+00 -9.08757188E+00 -4.60681791E-09
Number of symbols in /Mol/                 I                0
Force Field                                I                0
Atom Types                                 C   N=          18
                                                            
                                                            
                                                            
                                    
Int Atom Types                             I   N=          18
           0           0           0           0           0           0
           0           0           0           0           0           0
           0           0           0           0           0           0
MM charges                                 R   N=          18
  0.00000000E+00  0.00000000E+00  0.00000000E+00  0.00000000E+00  0.00000000E+00
  0.00000000E+00  0.00000000E+00  0.00000000E+00  0.00000000E+00  0.00000000E+00
  0.00000000E+00  0.00000000E+00  0.00000000E+00  0.00000000E+00  0.00000000E+00
  0.00000000E+00  0.00000000E+00  0.00000000E+00
Integer atomic weights                     I   N=          18
          12           1          12           1          12           1
          12          12           1          12          12           1
          12           1          12           1          12           1
Real atomic weights                        R   N=          18
  1.20000000E+01  1.00782504E+00  1.20000000E+01  1.00782504E+00  1.20000000E+01
  1.00782504E+00  1.20000000E+01  1.20000000E+01  1.00782504E+00  1.20000000E+01
  1.20000000E+01  1.00782504E+00  1.20000000E+01  1.00782504E+00  1.20000000E+01
  1.00782504E+00  1.20000000E+01  1.00782504E+00
Atom fragment info                         I   N=          18
           0           0           0           0           0           0
           0           0           0           0           0           0
           0           0           0           0           0           0
Atom residue num                           I   N=          18
           0           0           0           0           0           0
           0           0           0           0           0           0
           0           0           0           0           0           0
Nuclear spins                              I   N=          18
           0           1           0           1           0           1
           0           0           1           0           0           1
           0           1           0           1           0           1
Nuclear ZEff                               R   N=          18
 -3.60000000E+00 -1.00000000E+00 -3.60000000E+00 -1.00000000E+00 -3.60000000E+00
 -1.00000000E+00 -3.60000000E+00 -3.60000000E+00 -1.00000000E+00 -3.60000000E+00
 -3.60000000E+00 -1.00000000E+00 -3.60000000E+00 -1.00000000E+00 -3.60000000E+00
 -1.00000000E+00 -3.60000000E+00 -1.00000000E+00
Nuclear QMom                               R   N=          18
  0.00000000E+00  0.00000000E+00  0.00000000E+00  0.00000000E+00  0.00000000E+00
  0.00000000E+00  0.00000000E+00  0.00000000E+00  0.00000000E+00  0.00000000E+00
  0.00000000E+00  0.00000000E+00  0.00000000E+00  0.00000000E+00  0.00000000E+00
  0.00000000E+00  0.00000000E+00  0.00000000E+00
Nuclear GFac                               R   N=          18
  0.00000000E+00  2.79284600E+00  0.00000000E+00  2.79284600E+00  0.00000000E+00
  2.79284600E+00  0.00000000E+00  0.00000000E+00  2.79284600E+00  0.00000000E+00
  0.00000000E+00  2.79284600E+00  0.00000000E+00  2.79284600E+00  0.00000000E+00
  2.79284600E+00  0.00000000E+00  2.79284600E+00
MicOpt                                     I   N=          18
          -1          -1          -1          -1          -1          -1
          -1          -1          -1          -1          -1          -1
          -1          -1          -1          -1          -1          -1
Number of residues                         I                0
Number of secondary structures             I                0
Number of contracted shells                I               56
Number of primitive shells                 I              142
Pure/Cartesian d shells                    I                1
Pure/Cartesian f shells                    I                0
Highest angular momentum                   I                2
Largest degree of contraction              I                6
Shell types                                I   N=          56
           0          -1          -1           2           0           0
           0          -1          -1           2           0           0
           0          -1          -1           2           0           0
           0          -1          -1           2           0          -1
          -1           2           0           0           0          -1
          -1           2           0          -1          -1           2
           0           0           0          -1          -1           2
           0           0           0          -1          -1           2
           0           0           0          -1          -1           2
           0           0
Number of primitives per shell             I   N=          56
           6           3           1           1           3           1
           6           3           1           1           3           1
           6           3           1           1           3           1
           6           3           1           1           6           3
           1           1           3           1           6           3
           1           1           6           3           1           1
           3           1           6           3           1           1
           3           1           6           3           1           1
           3           1           6           3           1           1
           3           1
Shell to atom map                          I   N=          56
           1           1           1           1           2           2
           3           3           3           3           4           4
           5           5           5           5           6           6
           7           7           7           7           8           8
           8           8           9           9          10          10
          10          10          11          11          11          11
          12          12          13          13          13          13
          14          14          15          15          15          15
          16          16          17          17          17          17
          18          18
Primitive exponents                        R   N=         142
  3.04752488E+03  4.57369518E+02  1.03948685E+02  2.92101553E+01  9.28666296E+00
  3.16392696E+00  7.86827235E+00  1.88128854E+00  5.44249258E-01  1.68714478E-01
  8.00000000E-01  1.87311370E+01  2.82539436E+00  6.40121692E-01  1.61277759E-01
  3.04752488E+03  4.57369518E+02  1.03948685E+02  2.92101553E+01  9.28666296E+00
  3.16392696E+00  7.86827235E+00  1.88128854E+00  5.44249258E-01  1.68714478E-01
  8.00000000E-01  1.87311370E+01  2.82539436E+00  6.40121692E-01  1.61277759E-01
  3.04752488E+03  4.57369518E+02  1.03948685E+02  2.92101553E+01  9.28666296E+00
  3.16392696E+00  7.86827235E+00  1.88128854E+00  5.44249258E-01  1.68714478E-01
  8.00000000E-01  1.87311370E+01  2.82539436E+00  6.40121692E-01  1.61277759E-01
  3.04752488E+03  4.57369518E+02  1.03948685E+02  2.92101553E+01  9.28666296E+00
  3.16392696E+00  7.86827235E+00  1.88128854E+00  5.44249258E-01  1.68714478E-01
  8.00000000E-01  3.04752488E+03  4.57369518E+02  1.03948685E+02  2.92101553E+01
  9.28666296E+00  3.16392696E+00  7.86827235E+00  1.88128854E+00  5.44249258E-01
  1.68714478E-01  8.00000000E-01  1.87311370E+01  2.82539436E+00  6.40121692E-01
  1.61277759E-01  3.04752488E+03  4.57369518E+02  1.03948685E+02  2.92101553E+01
  9.28666296E+00  3.16392696E+00  7.86827235E+00  1.88128854E+00  5.44249258E-01
  1.68714478E-01  8.00000000E-01  3.04752488E+03  4.57369518E+02  1.03948685E+02
  2.92101553E+01  9.28666296E+00  3.16392696E+00  7.86827235E+00  1.88128854E+00
  5.44249258E-01  1.68714478E-01  8.00000000E-01  1.87311370E+01  2.82539436E+00
  6.40121692E-01  1.61277759E-01  3.04752488E+03  4.57369518E+02  1.03948685E+02
  2.92101553E+01  9.28666296E+00  3.16392696E+00  7.86827235E+00  1.88128854E+00
  5.44249258E-01  1.68714478E-01  8.00000000E-01  1.87311370E+01  2.82539436E+00
  6.40121692E-01  1.61277759E-01  3.04752488E+03  4.57369518E+02  1.03948685E+02
  2.92101553E+01  9.28666296E+00  3.16392696E+00  7.86827235E+00  1.88128854E+00
  5.44249258E-01  1.68714478E-01  8.00000000E-01  1.87311370E+01  2.82539436E+00
  6.40121692E-01  1.61277759E-01  3.04752488E+03  4.57369518E+02  1.03948685E+02
  2.92101553E+01  9.28666296E+00  3.16392696E+00  7.86827235E+00  1.88128854E+00
  5.44249258E-01  1.68714478E-01  8.00000000E-01  1.87311370E+01  2.82539436E+00
  6.40121692E-01  1.61277759E-01
Contraction coefficients                   R   N=         142
  1.83473713E-03  1.40373228E-02  6.88426223E-02  2.32184443E-01  4.67941348E-01
  3.62311985E-01 -1.19332420E-01 -1.60854152E-01  1.14345644E+00  1.00000000E+00
  1.00000000E+00  3.34946043E-02  2.34726953E-01  8.13757326E-01  1.00000000E+00
  1.83473713E-03  1.40373228E-02  6.88426223E-02  2.32184443E-01  4.67941348E-01
  3.62311985E-01 -1.19332420E-01 -1.60854152E-01  1.14345644E+00  1.00000000E+00
  1.00000000E+00  3.34946043E-02  2.34726953E-01  8.13757326E-01  1.00000000E+00
  1.83473713E-03  1.40373228E-02  6.88426223E-02  2.32184443E-01  4.67941348E-01
  3.62311985E-01 -1.19332420E-01 -1.60854152E-01  1.14345644E+00  1.00000000E+00
  1.00000000E+00  3.34946043E-02  2.34726953E-01  8.13757326E-01  1.00000000E+00
  1.83473713E-03  1.40373228E-02  6.88426223E-02  2.32184443E-01  4.67941348E-01
  3.62311985E-01 -1.19332420E-01 -1.60854152E-01  1.14345644E+00  1.00000000E+00
  1.00000000E+00  1.83473713E-03  1.40373228E-02  6.88426223E-02  2.32184443E-01
  4.67941348E-01  3.62311985E-01 -1.19332420E-01 -1.60854152E-01  1.14345644E+00
  1.00000000E+00  1.00000000E+00  3.34946043E-02  2.34726953E-01  8.13757326E-01
  1.00000000E+00  1.83473713E-03  1.40373228E-02  6.88426223E-02  2.32184443E-01
  4.67941348E-01  3.62311985E-01 -1.19332420E-01 -1.60854152E-01  1.14345644E+00
  1.00000000E+00  1.00000000E+00  1.83473713E-03  1.40373228E-02  6.88426223E-02
  2.32184443E-01  4.67941348E-01  3.62311985E-01 -1.19332420E-01 -1.60854152E-01
  1.14345644E+00  1.00000000E+00  1.00000000E+00  3.34946043E-02  2.34726953E-01
  8.13757326E-01  1.00000000E+00  1.83473713E-03  1.40373228E-02  6.88426223E-02
  2.32184443E-01  4.67941348E-01  3.62311985E-01 -1.19332420E-01 -1.60854152E-01
  1.14345644E+00  1.00000000E+00  1.00000000E+00  3.34946043E-02  2.34726953E-01
  8.13757326E-01  1.00000000E+00  1.83473713E-03  1.40373228E-02  6.88426223E-02
  2.32184443E-01  4.67941348E-01  3.62311985E-01 -1.19332420E-01 -1.60854152E-01
  1.14345644E+00  1.00000000E+00  1.00000000E+00  3.34946043E-02  2.34726953E-01
  8.13757326E-01  1.00000000E+00  1.83473713E-03  1.40373228E-02  6.88426223E-02
  2.32184443E-01  4.67941348E-01  3.62311985E-01 -1.19332420E-01 -1.60854152E-01
  1.14345644E+00  1.00000000E+00  1.00000000E+00  3.34946043E-02  2.34726953E-01
  8.13757326E-01  1.00000000E+00
P(S=P) Contraction coefficients            R   N=         142
  0.00000000E+00  0.00000000E+00  0.00000000E+00  0.00000000E+00  0.00000000E+00
  0.00000000E+00  6.89990666E-02  3.16423961E-01  7.44308291E-01  1.00000000E+00
  0.00000000E+00  0.00000000E+00  0.00000000E+00  0.00000000E+00  0.00000000E+00
  0.00000000E+00  0.00000000E+00  0.00000000E+00  0.00000000E+00  0.00000000E+00
  0.00000000E+00  6.89990666E-02  3.16423961E-01  7.44308291E-01  1.00000000E+00
  0.00000000E+00  0.00000000E+00  0.00000000E+00  0.00000000E+00  0.00000000E+00
  0.00000000E+00  0.00000000E+00  0.00000000E+00  0.00000000E+00  0.00000000E+00
  0.00000000E+00  6.89990666E-02  3.16423961E-01  7.44308291E-01  1.00000000E+00
  0.00000000E+00  0.00000000E+00  0.00000000E+00  0.00000000E+00  0.00000000E+00
  0.00000000E+00  0.00000000E+00  0.00000000E+00  0.00000000E+00  0.00000000E+00
  0.00000000E+00  6.89990666E-02  3.16423961E-01  7.44308291E-01  1.00000000E+00
  0.00000000E+00  0.00000000E+00  0.00000000E+00  0.00000000E+00  0.00000000E+00
  0.00000000E+00  0.00000000E+00  6.89990666E-02  3.16423961E-01  7.44308291E-01
  1.00000000E+00  0.00000000E+00  0.00000000E+00  0.00000000E+00  0.00000000E+00
  0.00000000E+00  0.00000000E+00  0.00000000E+00  0.00000000E+00  0.00000000E+00
  0.00000000E+00  0.00000000E+00  6.89990666E-02  3.16423961E-01  7.44308291E-01
  1.00000000E+00  0.00000000E+00  0.00000000E+00  0.00000000E+00  0.00000000E+00
  0.00000000E+00  0.00000000E+00  0.00000000E+00  6.89990666E-02  3.16423961E-01
  7.44308291E-01  1.00000000E+00  0.00000000E+00  0.00000000E+00  0.00000000E+00
  0.00000000E+00  0.00000000E+00  0.00000000E+00  0.00000000E+00  0.00000000E+00
  0.00000000E+00  0.00000000E+00  0.00000000E+00  6.89990666E-02  3.16423961E-01
  7.44308291E-01  1.00000000E+00  0.00000000E+00  0.00000000E+00  0.00000000E+00
  0.00000000E+00  0.00000000E+00  0.00000000E+00  0.00000000E+00  0.00000000E+00
  0.00000000E+00  0.00000000E+00  0.00000000E+00  6.89990666E-02  3.16423961E-01
  7.44308291E-01  1.00000000E+00  0.00000000E+00  0.00000000E+00  0.00000000E+00
  0.00000000E+00  0.00000000E+00  0.00000000E+00  0.00000000E+00  0.00000000E+00
  0.00000000E+00  0.00000000E+00  0.00000000E+00  6.89990666E-02  3.16423961E-01
  7.44308291E-01  1.00000000E+00  0.00000000E+00  0.00000000E+00  0.00000000E+00
  0.00000000E+00  0.00000000E+00
Coordinates of each shell                  R   N=         168
  2.66442709E+00 -3.85672489E-01  9.69933835E-10  2.66442709E+00 -3.85672489E-01
  9.69933835E-10  2.66442709E+00 -3.85672489E-01  9.69933835E-10  2.66442709E+00
 -3.85672489E-01  9.69933835E-10  4.69683989E+00 -3.58500208E-01 -3.49514663E-09
  4.69683989E+00 -3.58500208E-01 -3.49514663E-09 -2.66442778E+00 -3.85675680E-01
 -9.62098522E-10 -2.66442778E+00 -3.85675680E-01 -9.62098522E-10 -2.66442778E+00
 -3.85675680E-01 -9.62098522E-10 -2.66442778E+00 -3.85675680E-01 -9.62098522E-10
 -4.69684062E+00 -3.58505829E-01  3.46833619E-09 -4.69684062E+00 -3.58505829E-01
  3.46833619E-09  1.33065544E+00  1.88395995E+00 -2.77105593E-09  1.33065544E+00
  1.88395995E+00 -2.77105593E-09  1.33065544E+00  1.88395995E+00 -2.77105593E-09
  1.33065544E+00  1.88395995E+00 -2.77105593E-09  2.33887728E+00  3.64564517E+00
 -1.21347052E-09  2.33887728E+00  3.64564517E+00 -1.21347052E-09  1.41684142E+00
 -2.72096261E+00  1.79490013E-11  1.41684142E+00 -2.72096261E+00  1.79490013E-11
  1.41684142E+00 -2.72096261E+00  1.79490013E-11  1.41684142E+00 -2.72096261E+00
  1.79490013E-11 -1.33065885E+00  1.88395835E+00  2.78375310E-09 -1.33065885E+00
  1.88395835E+00  2.78375310E-09 -1.33065885E+00  1.88395835E+00  2.78375310E-09
 -1.33065885E+00  1.88395835E+00  2.78375310E-09 -2.33888280E+00  3.64564237E+00
  1.14807702E-09 -2.33888280E+00  3.64564237E+00  1.14807702E-09 -1.41683932E+00
 -2.72096431E+00  9.83753741E-11 -1.41683932E+00 -2.72096431E+00  9.83753741E-11
 -1.41683932E+00 -2.72096431E+00  9.83753741E-11 -1.41683932E+00 -2.72096431E+00
  9.83753741E-11  2.66442884E+00 -5.05625070E+00  1.72138252E-09  2.66442884E+00
 -5.05625070E+00  1.72138252E-09  2.66442884E+00 -5.05625070E+00  1.72138252E-09
  2.66442884E+00 -5.05625070E+00  1.72138252E-09  4.69684162E+00 -5.08341930E+00
  1.01335279E-09  4.69684162E+00 -5.08341930E+00  1.01335279E-09 -2.66442394E+00
 -5.05625389E+00 -1.67816967E-09 -2.66442394E+00 -5.05625389E+00 -1.67816967E-09
 -2.66442394E+00 -5.05625389E+00 -1.67816967E-09 -2.66442394E+00 -5.05625389E+00
 -1.67816967E-09 -4.69683670E+00 -5.08342492E+00 -1.02850343E-09 -4.69683670E+00
 -5.08342492E+00 -1.02850343E-09  1.33066047E+00 -7.32588473E+00  2.01766810E-10
  1.33066047E+00 -7.32588473E+00  2.01766810E-10  1.33066047E+00 -7.32588473E+00
  2.01766810E-10  1.33066047E+00 -7.32588473E+00  2.01766810E-10  2.33888362E+00
 -9.08756908E+00  4.53122596E-09  2.33888362E+00 -9.08756908E+00  4.53122596E-09
 -1.33065286E+00 -7.32588632E+00 -1.98889999E-10 -1.33065286E+00 -7.32588632E+00
 -1.98889999E-10 -1.33065286E+00 -7.32588632E+00 -1.98889999E-10 -1.33065286E+00
 -7.32588632E+00 -1.98889999E-10 -2.33887390E+00 -9.08757188E+00 -4.60681791E-09
 -2.33887390E+00 -9.08757188E+00 -4.60681791E-09
Constraint Structure                       R   N=          54
  2.66442709E+00 -3.85672489E-01  9.69933835E-10  4.69683989E+00 -3.58500208E-01
 -3.49514663E-09 -2.66442778E+00 -3.85675680E-01 -9.62098522E-10 -4.69684062E+00
 -3.58505829E-01  3.46833619E-09  1.33065544E+00  1.88395995E+00 -2.77105593E-09
  2.33887728E+00  3.64564517E+00 -1.21347052E-09  1.41684142E+00 -2.72096261E+00
  1.79490013E-11 -1.33065885E+00  1.88395835E+00  2.78375310E-09 -2.33888280E+00
  3.64564237E+00  1.14807702E-09 -1.41683932E+00 -2.72096431E+00  9.83753741E-11
  2.66442884E+00 -5.05625070E+00  1.72138252E-09  4.69684162E+00 -5.08341930E+00
  1.01335279E-09 -2.66442394E+00 -5.05625389E+00 -1.67816967E-09 -4.69683670E+00
 -5.08342492E+00 -1.02850343E-09  1.33066047E+00 -7.32588473E+00  2.01766810E-10
  2.33888362E+00 -9.08756908E+00  4.53122596E-09 -1.33065286E+00 -7.32588632E+00
 -1.98889999E-10 -2.33887390E+00 -9.08757188E+00 -4.60681791E-09
Num ILSW                                   I              100
ILSW                                       I   N=         100
           0           1           0           0           2           0
           0           0           3           0           0          -1
           0           0           0           0           2           0
           0           0           0           0           1           0
           1           1           0           0           0           0
           0           0      100000           0          -1           0
           0           0           0           0           0           0
           0           0           0           1           0           0
           0           0           1           0           0           0
           0           0           4          40           0           0
           0           0           0           0           0           0
           0           0           0           0           0           0
           0           0           0           0           0           0
           0           0           0           0           0           0
           0           0           0           0           0           0
           0           0           0           0           0           0
           0           0           0           0
Num RLSW                                   I               40
RLSW                                       R   N=          40
  1.00000000E+00  1.00000000E+00  1.00000000E+00  1.00000000E+00  1.00000000E+00
  0.00000000E+00  0.00000000E+00  1.00000000E+00  0.00000000E+00  0.00000000E+00
  0.00000000E+00  0.00000000E+00  1.00000000E+00  0.00000000E+00  0.00000000E+00
  0.00000000E+00  0.00000000E+00  1.00000000E+00  0.00000000E+00  0.00000000E+00
  0.00000000E+00  0.00000000E+00  1.00000000E+00  0.00000000E+00  0.00000000E+00
  0.00000000E+00  0.00000000E+00  1.00000000E+00  0.00000000E+00  0.00000000E+00
  0.00000000E+00  0.00000000E+00  1.00000000E+00  0.00000000E+00  0.00000000E+00
  0.00000000E+00  0.00000000E+00  0.00000000E+00  1.00000000E+00  1.00000000E+00
MxBond                                     I                3
NBond                                      I   N=          18
           3           1           3           1           3           1
           3           3           1           3           3           1
           3           1           3           1           3           1
IBond                                      I   N=          54
           2           5           7           1           0           0
           4           8          10           3           0           0
           1           6           8           5           0           0
           1          10          11           3           5           9
           8           0           0           3           7          13
           7          12          15          11           0           0
          10          14          17          13           0           0
          11          16          17          15           0           0
          13          15          18          17           0           0
RBond                                      R   N=          54
  1.00000000E+00  2.00000000E+00  1.00000000E+00  1.00000000E+00  0.00000000E+00
  0.00000000E+00  1.00000000E+00  2.00000000E+00  1.00000000E+00  1.00000000E+00
  0.00000000E+00  0.00000000E+00  2.00000000E+00  1.00000000E+00  1.50000000E+00
  1.00000000E+00  0.00000000E+00  0.00000000E+00  1.00000000E+00  1.50000000E+00
  1.00000000E+00  2.00000000E+00  1.50000000E+00  1.00000000E+00  1.00000000E+00
  0.00000000E+00  0.00000000E+00  1.00000000E+00  1.50000000E+00  1.00000000E+00
  1.00000000E+00  1.00000000E+00  2.00000000E+00  1.00000000E+00  0.00000000E+00
  0.00000000E+00  1.00000000E+00  1.00000000E+00  2.00000000E+00  1.00000000E+00
  0.00000000E+00  0.00000000E+00  2.00000000E+00  1.00000000E+00  1.50000000E+00
  1.00000000E+00  0.00000000E+00  0.00000000E+00  2.00000000E+00  1.50000000E+00
  1.00000000E+00  1.00000000E+00  0.00000000E+00  0.00000000E+00
Virial Ratio                               R      2.001800911277707E+00
SCF Energy                                 R     -3.833460794544772E+02
CIS Energy                                 R     -3.831692843115775E+02
Total Energy                               R     -3.831692843115775E+02
Post-SCF wavefunction norm                 R      1.000000000000000E+00
RMS Force                                  R      1.855433632270045E-06
RMS Density                                R      1.034462395103958E-09
External E-field                           R   N=          35
  0.00000000E+00  0.00000000E+00  0.00000000E+00  0.00000000E+00  0.00000000E+00
  0.00000000E+00  0.00000000E+00  0.00000000E+00  0.00000000E+00  0.00000000E+00
  0.00000000E+00  0.00000000E+00  0.00000000E+00  0.00000000E+00  0.00000000E+00
  0.00000000E+00  0.00000000E+00  0.00000000E+00  0.00000000E+00  0.00000000E+00
  0.00000000E+00  0.00000000E+00  0.00000000E+00  0.00000000E+00  0.00000000E+00
  0.00000000E+00  0.00000000E+00  0.00000000E+00  0.00000000E+00  0.00000000E+00
  0.00000000E+00  0.00000000E+00  0.00000000E+00  0.00000000E+00  0.00000000E+00
IOpCl                                      I                0
IROHF                                      I                0
Alpha Orbital Energies                     R   N=         166
 -1.12448223E+01 -1.12440895E+01 -1.12361324E+01 -1.12361238E+01 -1.12353446E+01
 -1.12353062E+01 -1.12343911E+01 -1.12343310E+01 -1.12341201E+01 -1.12340753E+01
 -1.16505706E+00 -1.10035004E+00 -1.04993658E+00 -1.00076752E+00 -9.73839212E-01
 -8.54653315E-01 -8.32977126E-01 -7.98629093E-01 -7.10314559E-01 -6.94260616E-01
 -6.72278989E-01 -6.24428861E-01 -6.00056414E-01 -5.82958847E-01 -5.78807745E-01
 -5.59465034E-01 -5.23973717E-01 -5.23057051E-01 -4.89379888E-01 -4.65753962E-01
 -4.38837140E-01 -3.85665664E-01 -3.08227635E-01 -2.76084552E-01  8.99276729E-02
  1.24561011E-01  1.99357253E-01  2.42239213E-01  2.60238343E-01  2.65102407E-01
  2.83690126E-01  3.11383514E-01  3.17577615E-01  3.21861812E-01  3.41573952E-01
  3.58085612E-01  4.11722574E-01  4.13683501E-01  4.55136350E-01  4.77301348E-01
  4.92520470E-01  4.98217977E-01  5.03919078E-01  5.57880183E-01  6.74605424E-01
  7.06250676E-01  7.11187183E-01  7.39128525E-01  7.41626525E-01  7.44032957E-01
  7.46792267E-01  7.80064404E-01  7.97328710E-01  8.04280732E-01  8.16027575E-01
  8.31825238E-01  8.43986857E-01  8.47676945E-01  8.49837929E-01  8.52273522E-01
  8.60523717E-01  8.62233846E-01  8.63644873E-01  9.22259585E-01  9.33943781E-01
  9.39834386E-01  1.00391427E+00  1.08275882E+00  1.10005184E+00  1.10098404E+00
  1.11169673E+00  1.11651102E+00  1.12962945E+00  1.13926672E+00  1.15888504E+00
  1.16647292E+00  1.18990339E+00  1.19853483E+00  1.20366553E+00  1.24394383E+00
  1.25345769E+00  1.27211934E+00  1.27989607E+00  1.30689583E+00  1.33092197E+00
  1.40306102E+00  1.44705525E+00  1.45101777E+00  1.49916355E+00  1.51601475E+00
  1.53700997E+00  1.57417762E+00  1.65456798E+00  1.68346821E+00  1.70743897E+00
  1.72107410E+00  1.73061407E+00  1.75203919E+00  1.76672345E+00  1.76944000E+00
  1.78645179E+00  1.78781344E+00  1.78874813E+00  1.97859714E+00  2.07914451E+00
  2.09955741E+00  2.15229586E+00  2.17602537E+00  2.17635798E+00  2.22667495E+00
  2.22901452E+00  2.27084058E+00  2.28223781E+00  2.28287720E+00  2.29594935E+00
  2.35717413E+00  2.38027727E+00  2.44004912E+00  2.45992748E+00  2.46831278E+00
  2.49312378E+00  2.50867429E+00  2.52054739E+00  2.59386033E+00  2.59463934E+00
  2.64201371E+00  2.65348940E+00  2.70098274E+00  2.70234566E+00  2.74480789E+00
  2.94451082E+00  2.95538426E+00  2.95602156E+00  2.96460403E+00  2.97937318E+00
  2.99598250E+00  3.08032400E+00  3.08806969E+00  3.10725563E+00  3.20425466E+00
  3.21087532E+00  3.25418034E+00  3.29932156E+00  3.45888820E+00  3.72874074E+00
  3.84020493E+00  4.50500810E+00  4.51811142E+00  4.54823973E+00  4.55294797E+00
  4.57163301E+00  4.69157816E+00  4.77564690E+00  4.82515386E+00  4.94406096E+00
  5.22296276E+00
Alpha MO coefficients                      R   N=       27556
  3.81425904E-02  9.33763108E-04  1.13227207E-04  1.19064636E-04 -5.51793438E-15
  1.92375396E-03 -3.78274932E-04 -8.60367273E-04  1.65009579E-12 -2.73303144E-04
 -3.60353839E-04 -1.78905215E-04 -9.58908739E-05 -3.91582983E-13 -2.08048451E-13
 -4.21900435E-05  1.11000043E-05  3.81425876E-02  9.33763032E-04 -1.13227349E-04
  1.19064498E-04 -6.28162593E-17  1.92375392E-03  3.78275936E-04 -8.60366804E-04
 -1.64962057E-12 -2.73303332E-04 -3.60353629E-04 -1.78905207E-04  9.58909918E-05
 -4.07578524E-13  2.21811618E-13 -4.21900428E-05  1.10999965E-05  1.55822200E-03
 -7.32212720E-05  1.54263961E-05  4.16395790E-05  2.24582067E-13  4.52863314E-05
 -4.29245684E-06 -1.27296918E-04 -1.47851358E-12  2.98730844E-06  5.34316534E-05
 -4.36291089E-05 -7.40534057E-06  1.48019692E-13  7.16823969E-14  4.29603715E-06
  1.16567529E-04  7.01830758E-01  1.94602686E-02  7.26402945E-05 -1.44262883E-10
  1.44892294E-12 -6.78094488E-03 -8.19307657E-04  1.06703843E-09 -4.78036773E-12
 -1.62843989E-03 -1.10418951E-03 -1.67448426E-03 -7.52843993E-10  2.80783624E-13
 -2.12213793E-13  1.55822181E-03 -7.32212790E-05 -1.54264466E-05  4.16395599E-05
 -2.26117417E-13  4.52863598E-05  4.29262321E-06 -1.27296927E-04  1.49079170E-12
  2.98729435E-06  5.34316696E-05 -4.36291090E-05  7.40527116E-06  1.47848684E-13
 -7.63783866E-14  4.29603802E-06  1.16567534E-04  7.01830745E-01  1.94602683E-02
 -7.26402938E-05 -2.30690558E-10 -1.47554686E-12 -6.78094463E-03  8.19307691E-04
  2.05604399E-09  4.88221807E-12 -1.62843988E-03 -1.10418950E-03 -1.67448424E-03
  2.77536733E-11  2.85348860E-13  2.08846653E-13  3.81422117E-02  9.33751688E-04
  1.13227329E-04 -1.19064792E-04 -4.52321456E-14  1.92376065E-03 -3.78276692E-04
  8.60368896E-04  1.33054906E-12 -2.73302439E-04 -3.60352470E-04 -1.78904266E-04
  9.58903633E-05 -3.57068935E-13  2.54476995E-13 -4.21898676E-05  1.10994116E-05