naphtalene                                                              
Freq      RLC-BLYP                                                    STO-3G              
Number of atoms                            I               18
Info1-9                                    I   N=           9
          29          29        1001           0           0         101
           6          18         202
Charge                                     I                0
Multiplicity                               I                1
Number of electrons                        I               68
Number of alpha electrons                  I               34
Number of beta electrons                   I               34
Number of basis functions                  I               58
Number of independent functions            I               58
Number of point charges in /Mol/           I                0
Number of translation vectors              I                0
Atomic numbers                             I   N=          18
           6           1           6           1           6           1
           6           6           1           6           6           1
           6           1           6           1           6           1
Nuclear charges                            R   N=          18
  6.00000000E+00  1.00000000E+00  6.00000000E+00  1.00000000E+00  6.00000000E+00
  1.00000000E+00  6.00000000E+00  6.00000000E+00  1.00000000E+00  6.00000000E+00
  6.00000000E+00  1.00000000E+00  6.00000000E+00  1.00000000E+00  6.00000000E+00
  1.00000000E+00  6.00000000E+00  1.00000000E+00
Current cartesian coordinates              R   N=          54
  2.64658791E+00 -3.55451816E-01  0.00000000E+00  4.70766307E+00 -3.75681335E-01
  0.00000000E+00 -2.64659168E+00 -3.55457486E-01  0.00000000E+00 -4.70766684E+00
 -3.75692673E-01  0.00000000E+00  1.34670577E+00  1.86803775E+00  0.00000000E+00
  2.35222905E+00  3.66691530E+00  0.00000000E+00  1.33494978E+00 -2.72106957E+00
  0.00000000E+00 -1.34671522E+00  1.86803397E+00  0.00000000E+00 -2.35224227E+00
  3.66690963E+00  0.00000000E+00 -1.33494978E+00 -2.72107335E+00  0.00000000E+00
  2.64659168E+00 -5.08579160E+00  0.00000000E+00  4.70763283E+00 -5.06674883E+00
  0.00000000E+00 -2.64658791E+00 -5.08579726E+00  0.00000000E+00 -4.70762716E+00
 -5.06675827E+00  0.00000000E+00  1.34623712E+00 -7.31023169E+00  0.00000000E+00
  2.35245014E+00 -9.10860846E+00  0.00000000E+00 -1.34622767E+00 -7.31023358E+00
  0.00000000E+00 -2.35243503E+00 -9.10861413E+00  0.00000000E+00
Number of symbols in /Mol/                 I                0
Force Field                                I                0
Atom Types                                 C   N=          18
                                                            
                                                            
                                                            
                                    
Int Atom Types                             I   N=          18
           0           0           0           0           0           0
           0           0           0           0           0           0
           0           0           0           0           0           0
MM charges                                 R   N=          18
  0.00000000E+00  0.00000000E+00  0.00000000E+00  0.00000000E+00  0.00000000E+00
  0.00000000E+00  0.00000000E+00  0.00000000E+00  0.00000000E+00  0.00000000E+00
  0.00000000E+00  0.00000000E+00  0.00000000E+00  0.00000000E+00  0.00000000E+00
  0.00000000E+00  0.00000000E+00  0.00000000E+00
Integer atomic weights                     I   N=          18
          12           1          12           1          12           1
          12          12           1          12          12           1
          12           1          12           1          12           1
Real atomic weights                        R   N=          18
  1.20000000E+01  1.00782504E+00  1.20000000E+01  1.00782504E+00  1.20000000E+01
  1.00782504E+00  1.20000000E+01  1.20000000E+01  1.00782504E+00  1.20000000E+01
  1.20000000E+01  1.00782504E+00  1.20000000E+01  1.00782504E+00  1.20000000E+01
  1.00782504E+00  1.20000000E+01  1.00782504E+00
Atom fragment info                         I   N=          18
           0           0           0           0           0           0
           0           0           0           0           0           0
           0           0           0           0           0           0
Atom residue num                           I   N=          18
           0           0           0           0           0           0
           0           0           0           0           0           0
           0           0           0           0           0           0
Nuclear spins                              I   N=          18
           0           1           0           1           0           1
           0           0           1           0           0           1
           0           1           0           1           0           1
Nuclear ZEff                               R   N=          18
 -3.60000000E+00 -1.00000000E+00 -3.60000000E+00 -1.00000000E+00 -3.60000000E+00
 -1.00000000E+00 -3.60000000E+00 -3.60000000E+00 -1.00000000E+00 -3.60000000E+00
 -3.60000000E+00 -1.00000000E+00 -3.60000000E+00 -1.00000000E+00 -3.60000000E+00
 -1.00000000E+00 -3.60000000E+00 -1.00000000E+00
Nuclear QMom                               R   N=          18
  0.00000000E+00  0.00000000E+00  0.00000000E+00  0.00000000E+00  0.00000000E+00
  0.00000000E+00  0.00000000E+00  0.00000000E+00  0.00000000E+00  0.00000000E+00
  0.00000000E+00  0.00000000E+00  0.00000000E+00  0.00000000E+00  0.00000000E+00
  0.00000000E+00  0.00000000E+00  0.00000000E+00
Nuclear GFac                               R   N=          18
  0.00000000E+00  2.79284600E+00  0.00000000E+00  2.79284600E+00  0.00000000E+00
  2.79284600E+00  0.00000000E+00  0.00000000E+00  2.79284600E+00  0.00000000E+00
  0.00000000E+00  2.79284600E+00  0.00000000E+00  2.79284600E+00  0.00000000E+00
  2.79284600E+00  0.00000000E+00  2.79284600E+00
MicOpt                                     I   N=          18
          -1          -1          -1          -1          -1          -1
          -1          -1          -1          -1          -1          -1
          -1          -1          -1          -1          -1          -1
Number of residues                         I                0
Number of secondary structures             I                0
Number of contracted shells                I               28
Number of primitive shells                 I               84
Pure/Cartesian d shells                    I                0
Pure/Cartesian f shells                    I                0
Highest angular momentum                   I                1
Largest degree of contraction              I                3
Shell types                                I   N=          28
           0          -1           0           0          -1           0
           0          -1           0           0          -1           0
          -1           0           0          -1           0          -1
           0           0          -1           0           0          -1
           0           0          -1           0
Number of primitives per shell             I   N=          28
           3           3           3           3           3           3
           3           3           3           3           3           3
           3           3           3           3           3           3
           3           3           3           3           3           3
           3           3           3           3
Shell to atom map                          I   N=          28
           1           1           2           3           3           4
           5           5           6           7           7           8
           8           9          10          10          11          11
          12          13          13          14          15          15
          16          17          17          18
Primitive exponents                        R   N=          84
  7.16168373E+01  1.30450963E+01  3.53051216E+00  2.94124936E+00  6.83483096E-01
  2.22289916E-01  3.42525091E+00  6.23913730E-01  1.68855404E-01  7.16168373E+01
  1.30450963E+01  3.53051216E+00  2.94124936E+00  6.83483096E-01  2.22289916E-01
  3.42525091E+00  6.23913730E-01  1.68855404E-01  7.16168373E+01  1.30450963E+01
  3.53051216E+00  2.94124936E+00  6.83483096E-01  2.22289916E-01  3.42525091E+00
  6.23913730E-01  1.68855404E-01  7.16168373E+01  1.30450963E+01  3.53051216E+00
  2.94124936E+00  6.83483096E-01  2.22289916E-01  7.16168373E+01  1.30450963E+01
  3.53051216E+00  2.94124936E+00  6.83483096E-01  2.22289916E-01  3.42525091E+00
  6.23913730E-01  1.68855404E-01  7.16168373E+01  1.30450963E+01  3.53051216E+00
  2.94124936E+00  6.83483096E-01  2.22289916E-01  7.16168373E+01  1.30450963E+01
  3.53051216E+00  2.94124936E+00  6.83483096E-01  2.22289916E-01  3.42525091E+00
  6.23913730E-01  1.68855404E-01  7.16168373E+01  1.30450963E+01  3.53051216E+00
  2.94124936E+00  6.83483096E-01  2.22289916E-01  3.42525091E+00  6.23913730E-01
  1.68855404E-01  7.16168373E+01  1.30450963E+01  3.53051216E+00  2.94124936E+00
  6.83483096E-01  2.22289916E-01  3.42525091E+00  6.23913730E-01  1.68855404E-01
  7.16168373E+01  1.30450963E+01  3.53051216E+00  2.94124936E+00  6.83483096E-01
  2.22289916E-01  3.42525091E+00  6.23913730E-01  1.68855404E-01
Contraction coefficients                   R   N=          84
  1.54328967E-01  5.35328142E-01  4.44634542E-01 -9.99672292E-02  3.99512826E-01
  7.00115469E-01  1.54328967E-01  5.35328142E-01  4.44634542E-01  1.54328967E-01
  5.35328142E-01  4.44634542E-01 -9.99672292E-02  3.99512826E-01  7.00115469E-01
  1.54328967E-01  5.35328142E-01  4.44634542E-01  1.54328967E-01  5.35328142E-01
  4.44634542E-01 -9.99672292E-02  3.99512826E-01  7.00115469E-01  1.54328967E-01
  5.35328142E-01  4.44634542E-01  1.54328967E-01  5.35328142E-01  4.44634542E-01
 -9.99672292E-02  3.99512826E-01  7.00115469E-01  1.54328967E-01  5.35328142E-01
  4.44634542E-01 -9.99672292E-02  3.99512826E-01  7.00115469E-01  1.54328967E-01
  5.35328142E-01  4.44634542E-01  1.54328967E-01  5.35328142E-01  4.44634542E-01
 -9.99672292E-02  3.99512826E-01  7.00115469E-01  1.54328967E-01  5.35328142E-01
  4.44634542E-01 -9.99672292E-02  3.99512826E-01  7.00115469E-01  1.54328967E-01
  5.35328142E-01  4.44634542E-01  1.54328967E-01  5.35328142E-01  4.44634542E-01
 -9.99672292E-02  3.99512826E-01  7.00115469E-01  1.54328967E-01  5.35328142E-01
  4.44634542E-01  1.54328967E-01  5.35328142E-01  4.44634542E-01 -9.99672292E-02
  3.99512826E-01  7.00115469E-01  1.54328967E-01  5.35328142E-01  4.44634542E-01
  1.54328967E-01  5.35328142E-01  4.44634542E-01 -9.99672292E-02  3.99512826E-01
  7.00115469E-01  1.54328967E-01  5.35328142E-01  4.44634542E-01
P(S=P) Contraction coefficients            R   N=          84
  0.00000000E+00  0.00000000E+00  0.00000000E+00  1.55916275E-01  6.07683719E-01
  3.91957393E-01  0.00000000E+00  0.00000000E+00  0.00000000E+00  0.00000000E+00
  0.00000000E+00  0.00000000E+00  1.55916275E-01  6.07683719E-01  3.91957393E-01
  0.00000000E+00  0.00000000E+00  0.00000000E+00  0.00000000E+00  0.00000000E+00
  0.00000000E+00  1.55916275E-01  6.07683719E-01  3.91957393E-01  0.00000000E+00
  0.00000000E+00  0.00000000E+00  0.00000000E+00  0.00000000E+00  0.00000000E+00
  1.55916275E-01  6.07683719E-01  3.91957393E-01  0.00000000E+00  0.00000000E+00
  0.00000000E+00  1.55916275E-01  6.07683719E-01  3.91957393E-01  0.00000000E+00
  0.00000000E+00  0.00000000E+00  0.00000000E+00  0.00000000E+00  0.00000000E+00
  1.55916275E-01  6.07683719E-01  3.91957393E-01  0.00000000E+00  0.00000000E+00
  0.00000000E+00  1.55916275E-01  6.07683719E-01  3.91957393E-01  0.00000000E+00
  0.00000000E+00  0.00000000E+00  0.00000000E+00  0.00000000E+00  0.00000000E+00
  1.55916275E-01  6.07683719E-01  3.91957393E-01  0.00000000E+00  0.00000000E+00
  0.00000000E+00  0.00000000E+00  0.00000000E+00  0.00000000E+00  1.55916275E-01
  6.07683719E-01  3.91957393E-01  0.00000000E+00  0.00000000E+00  0.00000000E+00
  0.00000000E+00  0.00000000E+00  0.00000000E+00  1.55916275E-01  6.07683719E-01
  3.91957393E-01  0.00000000E+00  0.00000000E+00  0.00000000E+00
Coordinates of each shell                  R   N=          84
  2.64658791E+00 -3.55451816E-01  0.00000000E+00  2.64658791E+00 -3.55451816E-01
  0.00000000E+00  4.70766307E+00 -3.75681335E-01  0.00000000E+00 -2.64659168E+00
 -3.55457486E-01  0.00000000E+00 -2.64659168E+00 -3.55457486E-01  0.00000000E+00
 -4.70766684E+00 -3.75692673E-01  0.00000000E+00  1.34670577E+00  1.86803775E+00
  0.00000000E+00  1.34670577E+00  1.86803775E+00  0.00000000E+00  2.35222905E+00
  3.66691530E+00  0.00000000E+00  1.33494978E+00 -2.72106957E+00  0.00000000E+00
  1.33494978E+00 -2.72106957E+00  0.00000000E+00 -1.34671522E+00  1.86803397E+00
  0.00000000E+00 -1.34671522E+00  1.86803397E+00  0.00000000E+00 -2.35224227E+00
  3.66690963E+00  0.00000000E+00 -1.33494978E+00 -2.72107335E+00  0.00000000E+00
 -1.33494978E+00 -2.72107335E+00  0.00000000E+00  2.64659168E+00 -5.08579160E+00
  0.00000000E+00  2.64659168E+00 -5.08579160E+00  0.00000000E+00  4.70763283E+00
 -5.06674883E+00  0.00000000E+00 -2.64658791E+00 -5.08579726E+00  0.00000000E+00
 -2.64658791E+00 -5.08579726E+00  0.00000000E+00 -4.70762716E+00 -5.06675827E+00
  0.00000000E+00  1.34623712E+00 -7.31023169E+00  0.00000000E+00  1.34623712E+00
 -7.31023169E+00  0.00000000E+00  2.35245014E+00 -9.10860846E+00  0.00000000E+00
 -1.34622767E+00 -7.31023358E+00  0.00000000E+00 -1.34622767E+00 -7.31023358E+00
  0.00000000E+00 -2.35243503E+00 -9.10861413E+00  0.00000000E+00
Constraint Structure                       R   N=          54
  2.64658791E+00 -3.55451816E-01  0.00000000E+00  4.70766307E+00 -3.75681335E-01
  0.00000000E+00 -2.64659168E+00 -3.55457486E-01  0.00000000E+00 -4.70766684E+00
 -3.75692673E-01  0.00000000E+00  1.34670577E+00  1.86803775E+00  0.00000000E+00
  2.35222905E+00  3.66691530E+00  0.00000000E+00  1.33494978E+00 -2.72106957E+00
  0.00000000E+00 -1.34671522E+00  1.86803397E+00  0.00000000E+00 -2.35224227E+00
  3.66690963E+00  0.00000000E+00 -1.33494978E+00 -2.72107335E+00  0.00000000E+00
  2.64659168E+00 -5.08579160E+00  0.00000000E+00  4.70763283E+00 -5.06674883E+00
  0.00000000E+00 -2.64658791E+00 -5.08579726E+00  0.00000000E+00 -4.70762716E+00
 -5.06675827E+00  0.00000000E+00  1.34623712E+00 -7.31023169E+00  0.00000000E+00
  2.35245014E+00 -9.10860846E+00  0.00000000E+00 -1.34622767E+00 -7.31023358E+00
  0.00000000E+00 -2.35243503E+00 -9.10861413E+00  0.00000000E+00
Num ILSW                                   I              100
ILSW                                       I   N=         100
           0           0           0           0           2           0
           0           0           3           0       10402          -1
           0           0           0           0           2           0
           0           0           0           0           1           0
           1           1           0           0           0           0
           0           0      100000           0          -1           0
           0           0           0           0           0           0
           0           0           0           1           0           0
           0           0           1           0           0           0
           0           0           4          40           0           0
           0           0           0           0           0           0
           0           0           0           0           0           0
           0           0           0           0           0           0
           0           0           0           0           0           0
           0           0           0           0           0           0
           0           0           0           0           0           0
           0           0           0           0
Num RLSW                                   I               40
RLSW                                       R   N=          40
  1.00000000E+00  1.00000000E+00  1.00000000E+00  1.00000000E+00  1.00000000E+00
  0.00000000E+00  4.70000000E-01  0.00000000E+00  0.00000000E+00  1.00000000E+00
  0.00000000E+00  4.70000000E-01  0.00000000E+00  0.00000000E+00  1.00000000E+00
  0.00000000E+00  0.00000000E+00  1.00000000E+00  0.00000000E+00  0.00000000E+00
  0.00000000E+00  0.00000000E+00  1.00000000E+00  0.00000000E+00  0.00000000E+00
  0.00000000E+00  0.00000000E+00  1.00000000E+00  0.00000000E+00  0.00000000E+00
  0.00000000E+00  0.00000000E+00  1.00000000E+00  0.00000000E+00  0.00000000E+00
  0.00000000E+00  0.00000000E+00  0.00000000E+00  1.00000000E+00  1.00000000E+00
MxBond                                     I                3
NBond                                      I   N=          18
           3           1           3           1           3           1
           3           3           1           3           3           1
           3           1           3           1           3           1
IBond                                      I   N=          54
           2           5           7           1           0           0
           4           8          10           3           0           0
           1           6           8           5           0           0
           1          10          11           3           5           9
           8           0           0           3           7          13
           7          12          15          11           0           0
          10          14          17          13           0           0
          11          16          17          15           0           0
          13          15          18          17           0           0
RBond                                      R   N=          54
  1.00000000E+00  2.00000000E+00  1.00000000E+00  1.00000000E+00  0.00000000E+00
  0.00000000E+00  1.00000000E+00  2.00000000E+00  1.00000000E+00  1.00000000E+00
  0.00000000E+00  0.00000000E+00  2.00000000E+00  1.00000000E+00  1.50000000E+00
  1.00000000E+00  0.00000000E+00  0.00000000E+00  1.00000000E+00  1.50000000E+00
  1.00000000E+00  2.00000000E+00  1.50000000E+00  1.00000000E+00  1.00000000E+00
  0.00000000E+00  0.00000000E+00  1.00000000E+00  1.50000000E+00  1.00000000E+00
  1.00000000E+00  1.00000000E+00  2.00000000E+00  1.00000000E+00  0.00000000E+00
  0.00000000E+00  1.00000000E+00  1.00000000E+00  2.00000000E+00  1.00000000E+00
  0.00000000E+00  0.00000000E+00  2.00000000E+00  1.00000000E+00  1.50000000E+00
  1.00000000E+00  0.00000000E+00  0.00000000E+00  2.00000000E+00  1.50000000E+00
  1.00000000E+00  1.00000000E+00  0.00000000E+00  0.00000000E+00
Virial Ratio                               R      2.014188765094385E+00
SCF Energy                                 R     -3.798982235157412E+02
Total Energy                               R     -3.798982235157412E+02
RMS Force                                  R      1.350012657967818E-04
RMS Density                                R      1.642248681679058E-09
External E-field                           R   N=          35
  0.00000000E+00  0.00000000E+00  0.00000000E+00  0.00000000E+00  0.00000000E+00
  0.00000000E+00  0.00000000E+00  0.00000000E+00  0.00000000E+00  0.00000000E+00
  0.00000000E+00  0.00000000E+00  0.00000000E+00  0.00000000E+00  0.00000000E+00
  0.00000000E+00  0.00000000E+00  0.00000000E+00  0.00000000E+00  0.00000000E+00
  0.00000000E+00  0.00000000E+00  0.00000000E+00  0.00000000E+00  0.00000000E+00
  0.00000000E+00  0.00000000E+00  0.00000000E+00  0.00000000E+00  0.00000000E+00
  0.00000000E+00  0.00000000E+00  0.00000000E+00  0.00000000E+00  0.00000000E+00
IOpCl                                      I                0
IROHF                                      I                0
Alpha Orbital Energies                     R   N=          58
 -9.97912006E+00 -9.97813817E+00 -9.96635073E+00 -9.96634272E+00 -9.96551965E+00
 -9.96551381E+00 -9.96505044E+00 -9.96499986E+00 -9.96475027E+00 -9.96466189E+00
 -1.00075409E+00 -9.44770408E-01 -8.90643061E-01 -8.54467490E-01 -8.34676272E-01
 -7.27230821E-01 -7.13894907E-01 -7.02283720E-01 -6.15093848E-01 -6.03159167E-01
 -5.87776476E-01 -5.36987175E-01 -5.25054777E-01 -5.02924243E-01 -4.94425500E-01
 -4.85203279E-01 -4.83796673E-01 -4.43777748E-01 -4.05615741E-01 -4.04502565E-01
 -3.97769100E-01 -3.45582452E-01 -2.85945162E-01 -2.57668597E-01  1.45611947E-01
  1.79679891E-01  2.48874387E-01  3.26278708E-01  4.43384631E-01  4.75369598E-01
  4.93447880E-01  5.11636974E-01  5.43349837E-01  5.79209903E-01  5.96107369E-01
  6.05300480E-01  6.13279175E-01  6.23436624E-01  6.76635939E-01  7.02294950E-01
  7.25579653E-01  7.34737693E-01  7.90059926E-01  7.99287591E-01  8.52621043E-01
  8.68755706E-01  9.78980820E-01  9.82323490E-01
Alpha MO coefficients                      R   N=        3364
  2.51380929E-02  8.25738276E-03 -2.42584428E-03 -4.06265153E-03 -5.33864950E-18
 -4.03152951E-04 -2.51380810E-02 -8.25739683E-03 -2.42585349E-03  4.06265751E-03
  2.17916407E-18  4.03153810E-04 -1.96541565E-03 -7.86587662E-04  7.72325865E-05
  4.15104168E-04  3.53040289E-18  3.54262208E-05 -6.98321012E-01 -4.15540101E-02
  4.94727702E-03  3.47426646E-06  1.28611687E-17  1.96542290E-03  7.86588278E-04
  7.72348730E-05 -4.15105269E-04 -1.67263768E-18 -3.54258181E-05  6.98322523E-01
  4.15540693E-02  4.94726723E-03 -3.45582311E-06 -1.20760481E-17  2.50915480E-02
  8.26041595E-03 -2.42757250E-03  4.06384392E-03 -7.83033479E-18 -4.02671240E-04
 -2.50916623E-02 -8.26043655E-03 -2.42757308E-03 -4.06385500E-03  7.73327346E-18
  4.02672181E-04 -1.96632951E-03 -7.85981359E-04  7.68780224E-05 -4.14651922E-04
  8.87891119E-18  3.55617963E-05  1.96631154E-03  7.85983030E-04  7.68748613E-05
  4.14651217E-04 -8.58571594E-18 -3.55626077E-05 -2.90496830E-02 -7.88858906E-03
  2.25244367E-03  4.01879864E-03  6.79150320E-17  3.20206060E-04 -2.90495726E-02
 -7.88856855E-03 -2.25244616E-03  4.01878610E-03  6.59103642E-17  3.20204121E-04
 -2.70359381E-03  3.22065432E-04  1.29353901E-04 -1.27185124E-04 -3.18865611E-17
 -7.16640702E-05  6.99063974E-01  2.74667168E-02  4.59833384E-03 -2.59052147E-06
 -4.38473768E-17 -2.70360615E-03  3.22063088E-04 -1.29353313E-04 -1.27184362E-04
 -3.66111878E-17 -7.16638295E-05  6.99062467E-01  2.74666268E-02 -4.59834417E-03
 -2.60083408E-06 -5.54838689E-17 -2.89984847E-02 -7.89108432E-03  2.25381338E-03
 -4.01999551E-03  4.11651616E-17  3.19835919E-04 -2.89984547E-02 -7.89106785E-03
 -2.25379988E-03 -4.01999057E-03  8.17212081E-17  3.19836159E-04 -2.70247621E-03
  3.21481842E-04  1.29648547E-04  1.26455223E-04 -1.68805339E-18 -7.18915027E-05
 -2.70251370E-03  3.21477616E-04 -1.29650817E-04  1.26453205E-04 -6.11613535E-17
 -7.18913303E-05  1.83428243E-01  1.64663452E-02 -2.88737989E-03  4.25116785E-03
 -9.82274800E-17 -1.96921614E-03 -1.83423395E-01 -1.64661435E-02 -2.88737288E-03
 -4.25118308E-03 -8.91794709E-17  1.96916858E-03 -6.73734220E-01 -4.13646831E-02
  4.05800038E-03  2.50876845E-03  6.54360444E-17  6.75008636E-03  8.35726494E-03
 -1.60622836E-03 -5.29976545E-04 -1.39196240E-03  4.47636841E-17  6.73736028E-01
  4.13647126E-02  4.05800882E-03 -2.50873419E-03  3.49160143E-17 -6.75010282E-03
 -8.35701295E-03  1.60618827E-03 -5.29963275E-04  1.39193569E-03  1.08961939E-16
 -9.85216344E-03 -8.51195129E-04  1.92209993E-04  2.17066656E-04 -1.06208696E-16
  1.07836694E-04  9.85265517E-03  8.51236258E-04  1.92216127E-04 -2.17078374E-04
 -8.83843662E-17 -1.07842445E-04  3.29348415E-02  2.03404117E-03 -1.92875408E-04
  1.30396977E-04  8.13583157E-17 -3.31233481E-04 -3.29366110E-02 -2.03411532E-03
 -1.92862132E-04 -1.30403311E-04  1.86271967E-17  3.31250369E-04  8.18939695E-03
  7.67547205E-04 -9.13309074E-05  2.00680416E-04 -5.20548219E-19 -8.59596622E-05
 -8.18924942E-03 -7.67549446E-04 -9.13290675E-05 -2.00678338E-04  7.08662039E-18
  8.59591797E-05 -3.32820037E-02 -2.03181829E-03  2.06353082E-04  1.16022857E-04
 -4.78582489E-18  3.32223736E-04  9.25054874E-03 -1.78316241E-03 -5.88351648E-04
  1.26817494E-03 -6.98907457E-18  3.32823215E-02  2.03182987E-03  2.06352551E-04
 -1.16023211E-04 -9.72878486E-19 -3.32226309E-04 -9.25097074E-03  1.78328357E-03
 -5.88399471E-04 -1.26825133E-03  7.81475435E-19  1.84464572E-01  1.65039157E-02
 -2.88175375E-03 -4.24606573E-03  5.47469239E-18 -1.97888636E-03 -1.84478482E-01
 -1.65049728E-02 -2.88191188E-03  4.24628613E-03  6.24691967E-18  1.97902921E-03
 -6.73424760E-01 -4.13612354E-02  4.06164749E-03 -2.50842499E-03 -1.58227235E-17
  6.74791922E-03  6.73461169E-01  4.13627948E-02  4.06135847E-03  2.50856931E-03
  7.57471563E-18 -6.74826980E-03 -4.17632450E-01 -2.56411638E-02  2.42312105E-03
 -3.56404831E-03 -1.09306097E-16  4.16778865E-03 -4.17603265E-01 -2.56398755E-02
 -2.42309794E-03 -3.56408969E-03  1.25137915E-17  4.16750803E-03  5.31711814E-01
  2.50342227E-02  4.92579444E-03 -3.40518648E-03 -3.15501658E-16 -5.16724133E-03
 -1.12091378E-02  2.40749008E-03  9.44106102E-04  3.07434672E-03 -6.61806114E-19
  5.31721406E-01  2.50344651E-02 -4.92562495E-03 -3.40504588E-03 -1.68667613E-16
 -5.16732763E-03 -1.12081465E-02  2.40728916E-03 -9.44020056E-04  3.07415692E-03
 -1.11410413E-16  1.22015053E-01  7.22558452E-03 -7.19184604E-04 -9.18386510E-04
  1.00005921E-16 -1.18240073E-03  1.22012654E-01  7.22537284E-03  7.19145870E-04
 -9.18332721E-04  1.21021608E-16 -1.18237947E-03 -1.32320528E-01 -6.40323215E-03
 -1.30840423E-03 -9.21992775E-04  1.71318501E-16  1.29980184E-03 -1.32311800E-01
 -6.40269835E-03  1.30845911E-03 -9.21958972E-04  3.53177666E-16  1.29971389E-03
 -9.76369236E-02 -6.29925055E-03  5.53743861E-04 -9.73631077E-04 -1.07450336E-17
  1.01525761E-03 -9.76297131E-02 -6.29893010E-03 -5.53739266E-04 -9.73640667E-04
 -9.86760357E-17  1.01518883E-03  1.50888978E-01  6.90119891E-03  1.30116637E-03
 -8.78871159E-04  1.67243452E-17 -1.45045261E-03 -1.92850148E-02  4.15557510E-03
  1.62873462E-03 -1.79141956E-03  7.46186644E-17  1.50891124E-01  6.90124614E-03
 -1.30112616E-03 -8.78836598E-04  1.53129718E-18 -1.45047173E-03 -1.92844216E-02
  4.15545519E-03 -1.62869105E-03 -1.79141481E-03  1.37594093E-17 -4.11974674E-01
 -2.54194562E-02  2.37738793E-03  3.56974654E-03 -6.87435533E-17  4.13112762E-03
 -4.11968270E-01 -2.54187539E-02 -2.37724803E-03  3.56951780E-03  1.27234209E-16
  4.13106107E-03  5.36012851E-01  2.51399552E-02  4.91753040E-03  3.39285996E-03
 -2.64141183E-17 -5.20159385E-03  5.35977120E-01  2.51378004E-02 -4.91776497E-03
  3.39273924E-03  3.69761839E-18 -5.20123492E-03  5.07584916E-01  2.29317939E-02
 -4.24069129E-04 -4.21721556E-04 -3.52853576E-18 -4.85888975E-03 -5.07574229E-01
 -2.29316996E-02 -4.24199758E-04  4.21508238E-04 -9.42780447E-18  4.85878520E-03
  1.39173033E-01  2.41957038E-03 -2.66637893E-03  2.80716963E-03  1.26668482E-17
 -1.23387217E-03  2.32907964E-03 -4.81164039E-04 -2.04946514E-04 -5.59624403E-03
 -1.73660968E-17 -1.39134828E-01 -2.41819651E-03 -2.66658346E-03 -2.80717094E-03
  1.12185784E-18  1.23350307E-03 -2.32721575E-03  4.80907254E-04 -2.04858618E-04
  5.59633040E-03  1.85344720E-17 -4.44934389E-01 -2.00906598E-02  3.79349972E-04
 -3.88763226E-04 -5.41195804E-18  4.25001065E-03  4.44960115E-01  2.00916657E-02
  3.79299984E-04  3.88858140E-04 -4.45536918E-18 -4.25027054E-03 -1.22891603E-01
 -2.18691293E-03  2.34464739E-03  2.45536641E-03  6.68883614E-18  1.09069007E-03
  1.22912921E-01  2.18746609E-03  2.34460843E-03 -2.45548508E-03 -1.39908406E-18
 -1.09089320E-03 -4.44790335E-01 -2.01136143E-02  2.90969287E-04  2.89877980E-04
  1.95196714E-17  4.33030837E-03  4.44768009E-01  2.01130061E-02  2.91087996E-04
 -2.89620082E-04  3.43905646E-17 -4.33009806E-03 -1.21262725E-01 -2.02247601E-03
  2.33057582E-03 -2.49370689E-03  1.76043308E-17  1.07559586E-03 -3.48504675E-02
  7.38479029E-03  3.13260025E-03 -3.65317500E-04 -3.56010982E-17  1.21218277E-01
  2.02097871E-03  2.33077827E-03  2.49365291E-03 -6.40006392E-17 -1.07516931E-03
  3.48511799E-02 -7.38492932E-03  3.13265305E-03  3.65697511E-04  7.28257657E-18
 -5.07005984E-01 -2.29139344E-02  3.39527082E-04 -3.51647419E-04  2.34731635E-17
  4.92493113E-03  5.07045883E-01  2.29154874E-02  3.39453489E-04  3.51834023E-04
  3.02291777E-17 -4.92532463E-03 -1.39176478E-01 -2.37708795E-03  2.66452718E-03
  2.83636607E-03  1.88426549E-17  1.23576707E-03  1.39212361E-01  2.37805983E-03
  2.66444575E-03 -2.83654334E-03 -4.73805871E-17 -1.23610875E-03  4.01054924E-01
  1.58913961E-02  5.43652430E-04 -1.65818567E-03 -1.22736749E-16 -3.87914084E-03
  4.01101021E-01  1.58935246E-02 -5.43602381E-04 -1.65819281E-03  1.67597656E-16
 -3.87959008E-03  3.25164702E-01  8.42134570E-03  6.77077618E-04  1.88745896E-03
  3.06733915E-17 -3.09864704E-03  1.63189886E-03 -2.53994851E-04 -9.61220941E-05
 -4.59629416E-03 -2.42389897E-16  3.25173424E-01  8.42132946E-03 -6.76867746E-04
  1.88772079E-03  1.66449453E-16 -3.09871980E-03  1.63522719E-03 -2.54720115E-04
  9.64367325E-05 -4.59629107E-03  6.69316789E-17 -3.66174003E-01 -1.44981036E-02
 -4.88650938E-04 -1.55540494E-03 -1.65458821E-16  3.53396448E-03 -3.66126593E-01
 -1.44960638E-02  4.88654633E-04 -1.55531813E-03  1.65096911E-16  3.53351138E-03
 -3.00289672E-01 -7.82634642E-03 -6.36461136E-04  1.71185280E-03 -3.14593546E-17
  2.86017408E-03 -3.00268100E-01 -7.82562283E-03  6.36763448E-04  1.71160609E-03
  7.03110607E-17  2.85997272E-03  3.79783329E-01  1.50741166E-02  6.46624077E-04
 -1.20086160E-03 -4.60493190E-17 -3.76779421E-03  3.79811374E-01  1.50754213E-02
 -6.46584612E-04 -1.20086503E-03  1.74101423E-16 -3.76806277E-03  2.81711061E-01
  6.90885772E-03  4.97011546E-04  1.90823286E-03  4.48912240E-17 -2.70448353E-03
  3.65157982E-02 -5.85061748E-03 -2.21029307E-03  1.97863371E-04 -1.45707903E-16
  2.81715377E-01  6.90879337E-03 -4.96892541E-04  1.90839085E-03  5.65517201E-17