 Entering Gaussian System, Link 0=g09
 Initial command:
 /apps/Gausian/g09/l1.exe /local/tm162.185906/scratch/Gau-2915.inp -scrdir=/local/tm162.185906/scratch/
 Entering Link 1 = /apps/Gausian/g09/l1.exe PID=      2916.
  
 Copyright (c) 1988,1990,1992,1993,1995,1998,2003,2009,2011,
            Gaussian, Inc.  All Rights Reserved.
  
 This is part of the Gaussian(R) 09 program.  It is based on
 the Gaussian(R) 03 system (copyright 2003, Gaussian, Inc.),
 the Gaussian(R) 98 system (copyright 1998, Gaussian, Inc.),
 the Gaussian(R) 94 system (copyright 1995, Gaussian, Inc.),
 the Gaussian 92(TM) system (copyright 1992, Gaussian, Inc.),
 the Gaussian 90(TM) system (copyright 1990, Gaussian, Inc.),
 the Gaussian 88(TM) system (copyright 1988, Gaussian, Inc.),
 the Gaussian 86(TM) system (copyright 1986, Carnegie Mellon
 University), and the Gaussian 82(TM) system (copyright 1983,
 Carnegie Mellon University). Gaussian is a federally registered
 trademark of Gaussian, Inc.
  
 This software contains proprietary and confidential information,
 including trade secrets, belonging to Gaussian, Inc.
  
 This software is provided under written license and may be
 used, copied, transmitted, or stored only in accord with that
 written license.
  
 The following legend is applicable only to US Government
 contracts under FAR:
  
                    RESTRICTED RIGHTS LEGEND
  
 Use, reproduction and disclosure by the US Government is
 subject to restrictions as set forth in subparagraphs (a)
 and (c) of the Commercial Computer Software - Restricted
 Rights clause in FAR 52.227-19.
  
 Gaussian, Inc.
 340 Quinnipiac St., Bldg. 40, Wallingford CT 06492
  
  
 ---------------------------------------------------------------
 Warning -- This program may not be used in any manner that
 competes with the business of Gaussian, Inc. or will provide
 assistance to any competitor of Gaussian, Inc.  The licensee
 of this program is prohibited from giving any competitor of
 Gaussian, Inc. access to this program.  By using this program,
 the user acknowledges that Gaussian, Inc. is engaged in the
 business of creating and licensing software in the field of
 computational chemistry and represents and warrants to the
 licensee that it is not a competitor of Gaussian, Inc. and that
 it will not use this program in any manner prohibited above.
 ---------------------------------------------------------------
  

 Cite this work as:
 Gaussian 09, Revision C.01,
 M. J. Frisch, G. W. Trucks, H. B. Schlegel, G. E. Scuseria, 
 M. A. Robb, J. R. Cheeseman, G. Scalmani, V. Barone, B. Mennucci, 
 G. A. Petersson, H. Nakatsuji, M. Caricato, X. Li, H. P. Hratchian, 
 A. F. Izmaylov, J. Bloino, G. Zheng, J. L. Sonnenberg, M. Hada, 
 M. Ehara, K. Toyota, R. Fukuda, J. Hasegawa, M. Ishida, T. Nakajima, 
 Y. Honda, O. Kitao, H. Nakai, T. Vreven, J. A. Montgomery, Jr., 
 J. E. Peralta, F. Ogliaro, M. Bearpark, J. J. Heyd, E. Brothers, 
 K. N. Kudin, V. N. Staroverov, T. Keith, R. Kobayashi, J. Normand, 
 K. Raghavachari, A. Rendell, J. C. Burant, S. S. Iyengar, J. Tomasi, 
 M. Cossi, N. Rega, J. M. Millam, M. Klene, J. E. Knox, J. B. Cross, 
 V. Bakken, C. Adamo, J. Jaramillo, R. Gomperts, R. E. Stratmann, 
 O. Yazyev, A. J. Austin, R. Cammi, C. Pomelli, J. W. Ochterski, 
 R. L. Martin, K. Morokuma, V. G. Zakrzewski, G. A. Voth, 
 P. Salvador, J. J. Dannenberg, S. Dapprich, A. D. Daniels, 
 O. Farkas, J. B. Foresman, J. V. Ortiz, J. Cioslowski, 
 and D. J. Fox, Gaussian, Inc., Wallingford CT, 2010.
 
 ******************************************
 Gaussian 09:  EM64L-G09RevC.01 23-Sep-2011
                18-Sep-2015 
 ******************************************
 %rwf=/local/tm162.185906/spectrum.rwf
 %nosave
 %nproc=8
 Will use up to    8 processors via shared memory.
 %mem=1000MB
 %chk=/local/tm162.185906/S1.chk
 --------------------------------------------------------
 #P Geom=AllCheck Freq=(ReadFC,FC,SaveNM,ReadFCHT) NoSymm
 --------------------------------------------------------
 1/29=7,38=1/1;
 2/12=2,15=1,40=1/2;
 7/8=1,25=11,30=1,71=10,72=1,92=1/16;
 99/5=2,8=110000/99;
 Leave Link    1 at Fri Sep 18 08:50:18 2015, MaxMem=  131072000 cpu:       0.5
 (Enter /apps/Gausian/g09/l101.exe)
 Structure from the checkpoint file:  /local/tm162.185906/S1.chk
 ------
 anisol
 ------
 Charge =  0 Multiplicity = 1
 Redundant internal coordinates found in file.
 C,0,1.4395340071,-0.0111827688,-0.0001201116
 H,0,2.5197730473,-0.0253215888,-0.0002584475
 C,0,-1.4357627447,0.0825054526,0.0002468366
 H,0,-2.5150717524,0.1104222639,0.0004040817
 C,0,0.741771113,1.2174952189,-0.0000182311
 H,0,1.3084761579,2.1423957237,-0.0000813172
 C,0,0.6972713244,-1.2278310765,-0.0000372741
 H,0,1.1651994434,-2.2020200906,-0.000119325
 C,0,-0.6744041339,1.2881541626,0.0001647433
 H,0,-1.1721001828,2.248116523,0.0002414546
 C,0,-0.7247997921,-1.1479416791,0.0001441262
 O,0,-1.339321848,-2.3492439746,0.0002134625
 C,0,-2.765206605,-2.4472080394,0.0003623071
 H,0,-2.9838552661,-3.5125766468,0.0003214885
 H,0,-3.1821824096,-1.9794555156,0.8954167296
 H,0,-3.1823813586,-1.9793429645,-0.8945395237
 Recover connectivity data from disk.
 NAtoms=     16 NQM=        0 NQMF=       0 NMMI=     16 NMMIF=      0
                NMic=       0 NMicF=      0.
                    Isotopes and Nuclear Properties:
 (Nuclear quadrupole moments (NQMom) in fm**2, nuclear magnetic moments (NMagM)
  in nuclear magnetons)

  Atom         1           2           3           4           5           6           7           8           9          10
 IAtWgt=          12           1          12           1          12           1          12           1          12           1
 AtmWgt=  12.0000000   1.0078250  12.0000000   1.0078250  12.0000000   1.0078250  12.0000000   1.0078250  12.0000000   1.0078250
 NucSpn=           0           1           0           1           0           1           0           1           0           1
 AtZEff=  -3.6000000  -1.0000000  -3.6000000  -1.0000000  -3.6000000  -1.0000000  -3.6000000  -1.0000000  -3.6000000  -1.0000000
 NQMom=    0.0000000   0.0000000   0.0000000   0.0000000   0.0000000   0.0000000   0.0000000   0.0000000   0.0000000   0.0000000
 NMagM=    0.0000000   2.7928460   0.0000000   2.7928460   0.0000000   2.7928460   0.0000000   2.7928460   0.0000000   2.7928460

  Atom        11          12          13          14          15          16
 IAtWgt=          12          16          12           1           1           1
 AtmWgt=  12.0000000  15.9949146  12.0000000   1.0078250   1.0078250   1.0078250
 NucSpn=           0           0           0           1           1           1
 AtZEff=  -3.6000000  -5.6000000  -3.6000000  -1.0000000  -1.0000000  -1.0000000
 NQMom=    0.0000000   0.0000000   0.0000000   0.0000000   0.0000000   0.0000000
 NMagM=    0.0000000   0.0000000   0.0000000   2.7928460   2.7928460   2.7928460
 Leave Link  101 at Fri Sep 18 08:50:18 2015, MaxMem=  131072000 cpu:       0.6
 (Enter /apps/Gausian/g09/l202.exe)
                          Input orientation:                          
 ---------------------------------------------------------------------
 Center     Atomic      Atomic             Coordinates (Angstroms)
 Number     Number       Type             X           Y           Z
 ---------------------------------------------------------------------
      1          6           0        1.439534   -0.011183   -0.000120
      2          1           0        2.519773   -0.025322   -0.000258
      3          6           0       -1.435763    0.082505    0.000247
      4          1           0       -2.515072    0.110422    0.000404
      5          6           0        0.741771    1.217495   -0.000018
      6          1           0        1.308476    2.142396   -0.000081
      7          6           0        0.697271   -1.227831   -0.000037
      8          1           0        1.165199   -2.202020   -0.000119
      9          6           0       -0.674404    1.288154    0.000165
     10          1           0       -1.172100    2.248117    0.000241
     11          6           0       -0.724800   -1.147942    0.000144
     12          8           0       -1.339322   -2.349244    0.000213
     13          6           0       -2.765207   -2.447208    0.000362
     14          1           0       -2.983855   -3.512577    0.000321
     15          1           0       -3.182182   -1.979456    0.895417
     16          1           0       -3.182381   -1.979343   -0.894540
 ---------------------------------------------------------------------
                    Distance matrix (angstroms):
                    1          2          3          4          5
     1  C    0.000000
     2  H    1.080332   0.000000
     3  C    2.876823   3.957005   0.000000
     4  H    3.956475   5.036674   1.079670   0.000000
     5  C    1.412984   2.169305   2.455576   3.439860   0.000000
     6  H    2.157563   2.483191   3.431326   4.329946   1.084710
     7  C    1.425197   2.183470   2.503361   3.479953   2.445731
     8  H    2.207946   2.563764   3.461800   4.346468   3.445632
     9  C    2.481333   3.453692   1.425923   2.185202   1.417937
    10  H    3.453269   4.335718   2.181602   2.524541   2.173726
    11  C    2.444701   3.433297   1.421080   2.188276   2.783186
    12  O    3.631607   4.504801   2.433661   2.726233   4.129477
    13  C    4.859430   5.813480   2.857774   2.569833   5.072371
    14  H    5.641465   6.515433   3.914231   3.653201   6.021119
    15  H    5.102582   6.093699   2.846576   2.369319   5.140011
    16  H    5.102523   6.093644   2.846496   2.369250   5.139933
                    6          7          8          9         10
     6  H    0.000000
     7  C    3.425201   0.000000
     8  H    4.346778   1.080741   0.000000
     9  C    2.159061   2.865602   3.945308   0.000000
    10  H    2.482828   3.946741   5.026598   1.081309   0.000000
    11  C    3.867885   1.424313   2.164065   2.436617   3.425389
    12  O    5.213987   2.324926   2.508845   3.697672   4.600401
    13  C    6.136722   3.670917   3.938046   4.280699   4.958232
    14  H    7.099494   4.332523   4.351116   5.327343   6.038878
    15  H    6.160973   4.051782   4.444238   4.215175   4.765935
    16  H    6.160892   4.051742   4.444213   4.215090   4.765845
                   11         12         13         14         15
    11  C    0.000000
    12  O    1.349357   0.000000
    13  C    2.418957   1.429246   0.000000
    14  H    3.270295   2.014406   1.087574   0.000000
    15  H    2.744387   2.081890   1.092604   1.786334   0.000000
    16  H    2.744339   2.081893   1.092603   1.786335   1.789956
                   16
    16  H    0.000000
 Symmetry turned off by external request.
 Stoichiometry    C7H8O
 Framework group  C1[X(C7H8O)]
 Deg. of freedom    42
 Full point group                 C1      NOp   1
 Rotational constants (GHZ):      4.8439858      1.5515125      1.1840140
 Leave Link  202 at Fri Sep 18 08:50:18 2015, MaxMem=  131072000 cpu:       0.2
 (Enter /apps/Gausian/g09/l716.exe)
 Electric field and nuclear coordinate derivatives read from checkpoint file.
 Dipole        =-1.00036929D+00-3.67589284D-01 1.10020903D-04
 -------------------------------------------------------------------
 Center     Atomic                   Forces (Hartrees/Bohr)
 Number     Number              X              Y              Z
 -------------------------------------------------------------------
      1        6          -0.001285485    0.000012819    0.000000153
      2        1           0.000648694    0.000006852   -0.000000026
      3        6          -0.000019622    0.000030777    0.000000276
      4        1          -0.000002355   -0.000003129   -0.000000125
      5        6           0.000253097   -0.000156047    0.000000005
      6        1          -0.000031808    0.000038911    0.000000023
      7        6           0.000262076    0.000197574   -0.000000102
      8        1          -0.000017559   -0.000019240    0.000000041
      9        6           0.000073252   -0.000121095   -0.000000168
     10        1          -0.000000972    0.000001613    0.000000011
     11        6           0.000083504    0.000048172    0.000000139
     12        8           0.000011527   -0.000009378   -0.000000472
     13        6           0.000008471   -0.000001613    0.000000414
     14        1           0.000009919   -0.000008019    0.000000037
     15        1           0.000003624   -0.000009048   -0.000000460
     16        1           0.000003638   -0.000009151    0.000000253
 -------------------------------------------------------------------
 Cartesian Forces:  Max     0.001285485 RMS     0.000219096
 Leave Link  716 at Fri Sep 18 08:50:18 2015, MaxMem=  131072000 cpu:       0.0
 (Enter /apps/Gausian/g09/l9999.exe)

 This type of calculation cannot be archived.


 HO!  SUCH BUGS AND GOBLINS IN MY LIFE!

                            -- HAMLET, ACT 5, SCENE 2
 Job cpu time:  0 days  0 hours  0 minutes  1.7 seconds.
 File lengths (MBytes):  RWF=      5 Int=      0 D2E=      0 Chk=     51 Scr=      1
 Normal termination of Gaussian 09 at Fri Sep 18 08:50:19 2015.
