 Entering Gaussian System, Link 0=g09
 Initial command:
 /apps/Gausian/g09/l1.exe /local/tm162.157905/scratch/Gau-11407.inp -scrdir=/local/tm162.157905/scratch/
 Entering Link 1 = /apps/Gausian/g09/l1.exe PID=     11408.
  
 Copyright (c) 1988,1990,1992,1993,1995,1998,2003,2009,2011,
            Gaussian, Inc.  All Rights Reserved.
  
 This is part of the Gaussian(R) 09 program.  It is based on
 the Gaussian(R) 03 system (copyright 2003, Gaussian, Inc.),
 the Gaussian(R) 98 system (copyright 1998, Gaussian, Inc.),
 the Gaussian(R) 94 system (copyright 1995, Gaussian, Inc.),
 the Gaussian 92(TM) system (copyright 1992, Gaussian, Inc.),
 the Gaussian 90(TM) system (copyright 1990, Gaussian, Inc.),
 the Gaussian 88(TM) system (copyright 1988, Gaussian, Inc.),
 the Gaussian 86(TM) system (copyright 1986, Carnegie Mellon
 University), and the Gaussian 82(TM) system (copyright 1983,
 Carnegie Mellon University). Gaussian is a federally registered
 trademark of Gaussian, Inc.
  
 This software contains proprietary and confidential information,
 including trade secrets, belonging to Gaussian, Inc.
  
 This software is provided under written license and may be
 used, copied, transmitted, or stored only in accord with that
 written license.
  
 The following legend is applicable only to US Government
 contracts under FAR:
  
                    RESTRICTED RIGHTS LEGEND
  
 Use, reproduction and disclosure by the US Government is
 subject to restrictions as set forth in subparagraphs (a)
 and (c) of the Commercial Computer Software - Restricted
 Rights clause in FAR 52.227-19.
  
 Gaussian, Inc.
 340 Quinnipiac St., Bldg. 40, Wallingford CT 06492
  
  
 ---------------------------------------------------------------
 Warning -- This program may not be used in any manner that
 competes with the business of Gaussian, Inc. or will provide
 assistance to any competitor of Gaussian, Inc.  The licensee
 of this program is prohibited from giving any competitor of
 Gaussian, Inc. access to this program.  By using this program,
 the user acknowledges that Gaussian, Inc. is engaged in the
 business of creating and licensing software in the field of
 computational chemistry and represents and warrants to the
 licensee that it is not a competitor of Gaussian, Inc. and that
 it will not use this program in any manner prohibited above.
 ---------------------------------------------------------------
  

 Cite this work as:
 Gaussian 09, Revision C.01,
 M. J. Frisch, G. W. Trucks, H. B. Schlegel, G. E. Scuseria, 
 M. A. Robb, J. R. Cheeseman, G. Scalmani, V. Barone, B. Mennucci, 
 G. A. Petersson, H. Nakatsuji, M. Caricato, X. Li, H. P. Hratchian, 
 A. F. Izmaylov, J. Bloino, G. Zheng, J. L. Sonnenberg, M. Hada, 
 M. Ehara, K. Toyota, R. Fukuda, J. Hasegawa, M. Ishida, T. Nakajima, 
 Y. Honda, O. Kitao, H. Nakai, T. Vreven, J. A. Montgomery, Jr., 
 J. E. Peralta, F. Ogliaro, M. Bearpark, J. J. Heyd, E. Brothers, 
 K. N. Kudin, V. N. Staroverov, T. Keith, R. Kobayashi, J. Normand, 
 K. Raghavachari, A. Rendell, J. C. Burant, S. S. Iyengar, J. Tomasi, 
 M. Cossi, N. Rega, J. M. Millam, M. Klene, J. E. Knox, J. B. Cross, 
 V. Bakken, C. Adamo, J. Jaramillo, R. Gomperts, R. E. Stratmann, 
 O. Yazyev, A. J. Austin, R. Cammi, C. Pomelli, J. W. Ochterski, 
 R. L. Martin, K. Morokuma, V. G. Zakrzewski, G. A. Voth, 
 P. Salvador, J. J. Dannenberg, S. Dapprich, A. D. Daniels, 
 O. Farkas, J. B. Foresman, J. V. Ortiz, J. Cioslowski, 
 and D. J. Fox, Gaussian, Inc., Wallingford CT, 2010.
 
 ******************************************
 Gaussian 09:  EM64L-G09RevC.01 23-Sep-2011
                10-Sep-2015 
 ******************************************
 %rwf=/local/tm162.157905/S0.rwf
 %nosave
 %chk=/local/tm162.157905/anisole.chk
 %nproc=2
 Will use up to    2 processors via shared memory.
 %mem=1Gb
 ----------------------------------------------------------------------
 #P Opt(tight MaxCycles=150) IOP(1/33=1) NoSymm B3LYP/6-311+G(d,p) Form
 check Freq
 ----------------------------------------------------------------------
 1/6=150,7=10,14=-1,18=20,19=15,26=3,33=1,38=1/1,3;
 2/9=110,12=2,15=1,17=6,18=5,40=1/2;
 3/5=4,6=6,7=111,11=2,16=1,25=1,30=1,71=1,74=-5/1,2,3;
 4//1;
 5/5=2,38=5/2;
 6/7=2,8=2,9=2,10=2,28=1/1;
 7/30=1/1,2,3,16;
 1/6=150,7=10,14=-1,18=20,19=15,33=1/3(2);
 2/9=110,15=1/2;
 99//99;
 2/9=110,15=1/2;
 3/5=4,6=6,7=111,11=2,16=1,25=1,30=1,71=1,74=-5/1,2,3;
 4/5=5,16=3/1;
 5/5=2,38=5/2;
 7/30=1/1,2,3,16;
 1/6=150,7=10,14=-1,18=20,19=15,33=1/3(-5);
 2/9=110,15=1/2;
 6/7=2,8=2,9=2,10=2,19=2,28=1/1;
 99/9=1/99;
 Leave Link    1 at Thu Sep 10 00:23:21 2015, MaxMem=  134217728 cpu:       0.1
 (Enter /apps/Gausian/g09/l101.exe)
 ONIOM data not found on unit 2.
 ------
 anisol
 ------
 Charge =  0 Multiplicity = 1
 Symbolic Z-Matrix:
 6                     1.39855  -0.0009   -0.0001 
 1                     2.4893   -0.01801  -0.00022 
 6                    -1.39354   0.03697   0.0002 
 1                    -2.47949   0.06905   0.00028 
 6                     0.71946   1.21876  -0.00005 
 1                     1.27429   2.1561   -0.00015 
 6                     0.69662  -1.19316   0. 
 1                     1.20993  -2.15405  -0.00003 
 6                    -0.66841   1.22635   0.00009 
 1                    -1.20694   2.17486   0.00011 
 6                    -0.71084  -1.18537   0.00017 
 8                    -1.30083  -2.45505   0.00031 
 6                    -2.74983  -2.40748   0.00042 
 1                    -3.08678  -3.45294  -0.00013 
 1                    -3.14773  -1.90458   0.89616 
 1                    -3.14783  -1.90359  -0.89472 
 
 RdStrC is calling ZToCFu for IStruc=1 NZ=    16.
 PrtBox:  NBox=     4 Levels=  2 BoxLen=    8.00 SMaxX=       10.65
          Shift=            5.948535            6.525109            1.690770
 Box      1 Number                   0 centers from      1 to      9:
 Box      2 Number                   2 centers from     10 to     12:
 Box      3 Number                   4 centers from     13 to     15:
 Box      4 Number                   6 centers from     16 to     16:
 ITRead=  0  0  0  0  0  0  0  0  0  0  0  0  0  0  0  0
 MicOpt= -1 -1 -1 -1 -1 -1 -1 -1 -1 -1 -1 -1 -1 -1 -1 -1
 NAtoms=     16 NQM=        0 NQMF=       0 NMMI=     16 NMMIF=      0
                NMic=       0 NMicF=      0.
                    Isotopes and Nuclear Properties:
 (Nuclear quadrupole moments (NQMom) in fm**2, nuclear magnetic moments (NMagM)
  in nuclear magnetons)

  Atom         1           2           3           4           5           6           7           8           9          10
 IAtWgt=          12           1          12           1          12           1          12           1          12           1
 AtmWgt=  12.0000000   1.0078250  12.0000000   1.0078250  12.0000000   1.0078250  12.0000000   1.0078250  12.0000000   1.0078250
 NucSpn=           0           1           0           1           0           1           0           1           0           1
 AtZEff=   0.0000000   0.0000000   0.0000000   0.0000000   0.0000000   0.0000000   0.0000000   0.0000000   0.0000000   0.0000000
 NQMom=    0.0000000   0.0000000   0.0000000   0.0000000   0.0000000   0.0000000   0.0000000   0.0000000   0.0000000   0.0000000
 NMagM=    0.0000000   2.7928460   0.0000000   2.7928460   0.0000000   2.7928460   0.0000000   2.7928460   0.0000000   2.7928460

  Atom        11          12          13          14          15          16
 IAtWgt=          12          16          12           1           1           1
 AtmWgt=  12.0000000  15.9949146  12.0000000   1.0078250   1.0078250   1.0078250
 NucSpn=           0           0           0           1           1           1
 AtZEff=   0.0000000   0.0000000   0.0000000   0.0000000   0.0000000   0.0000000
 NQMom=    0.0000000   0.0000000   0.0000000   0.0000000   0.0000000   0.0000000
 NMagM=    0.0000000   0.0000000   0.0000000   2.7928460   2.7928460   2.7928460
 No MM parameters found.
 Leave Link  101 at Thu Sep 10 00:23:22 2015, MaxMem=  134217728 cpu:       0.2
 (Enter /apps/Gausian/g09/l103.exe)

 GradGradGradGradGradGradGradGradGradGradGradGradGradGradGradGradGradGrad
 Berny optimization.
 Initialization pass.
                           ----------------------------
                           !    Initial Parameters    !
                           ! (Angstroms and Degrees)  !
 --------------------------                            --------------------------
 ! Name  Definition              Value          Derivative Info.                !
 --------------------------------------------------------------------------------
 ! R1    R(1,2)                  1.0909         estimate D2E/DX2                !
 ! R2    R(1,5)                  1.396          estimate D2E/DX2                !
 ! R3    R(1,7)                  1.3835         estimate D2E/DX2                !
 ! R4    R(3,4)                  1.0864         estimate D2E/DX2                !
 ! R5    R(3,9)                  1.393          estimate D2E/DX2                !
 ! R6    R(3,11)                 1.4001         estimate D2E/DX2                !
 ! R7    R(5,6)                  1.0892         estimate D2E/DX2                !
 ! R8    R(5,9)                  1.3879         estimate D2E/DX2                !
 ! R9    R(7,8)                  1.0894         estimate D2E/DX2                !
 ! R10   R(7,11)                 1.4075         estimate D2E/DX2                !
 ! R11   R(9,10)                 1.0907         estimate D2E/DX2                !
 ! R12   R(11,12)                1.4001         estimate D2E/DX2                !
 ! R13   R(12,13)                1.4498         estimate D2E/DX2                !
 ! R14   R(13,14)                1.0984         estimate D2E/DX2                !
 ! R15   R(13,15)                1.1016         estimate D2E/DX2                !
 ! R16   R(13,16)                1.1016         estimate D2E/DX2                !
 ! A1    A(2,1,5)              120.007          estimate D2E/DX2                !
 ! A2    A(2,1,7)              119.5881         estimate D2E/DX2                !
 ! A3    A(5,1,7)              120.4049         estimate D2E/DX2                !
 ! A4    A(4,3,9)              119.6774         estimate D2E/DX2                !
 ! A5    A(4,3,11)             120.8766         estimate D2E/DX2                !
 ! A6    A(9,3,11)             119.446          estimate D2E/DX2                !
 ! A7    A(1,5,6)              120.2697         estimate D2E/DX2                !
 ! A8    A(1,5,9)              119.4214         estimate D2E/DX2                !
 ! A9    A(6,5,9)              120.3089         estimate D2E/DX2                !
 ! A10   A(1,7,8)              121.4022         estimate D2E/DX2                !
 ! A11   A(1,7,11)             120.1697         estimate D2E/DX2                !
 ! A12   A(8,7,11)             118.4281         estimate D2E/DX2                !
 ! A13   A(3,9,5)              121.0564         estimate D2E/DX2                !
 ! A14   A(3,9,10)             119.0438         estimate D2E/DX2                !
 ! A15   A(5,9,10)             119.8998         estimate D2E/DX2                !
 ! A16   A(3,11,7)             119.5015         estimate D2E/DX2                !
 ! A17   A(3,11,12)            125.8924         estimate D2E/DX2                !
 ! A18   A(7,11,12)            114.6061         estimate D2E/DX2                !
 ! A19   A(11,12,13)           113.0431         estimate D2E/DX2                !
 ! A20   A(12,13,14)           105.9841         estimate D2E/DX2                !
 ! A21   A(12,13,15)           112.0889         estimate D2E/DX2                !
 ! A22   A(12,13,16)           112.0883         estimate D2E/DX2                !
 ! A23   A(14,13,15)           108.9112         estimate D2E/DX2                !
 ! A24   A(14,13,16)           108.9121         estimate D2E/DX2                !
 ! A25   A(15,13,16)           108.7469         estimate D2E/DX2                !
 ! D1    D(2,1,5,6)              0.0003         estimate D2E/DX2                !
 ! D2    D(2,1,5,9)            179.9996         estimate D2E/DX2                !
 ! D3    D(7,1,5,6)           -179.9994         estimate D2E/DX2                !
 ! D4    D(7,1,5,9)             -0.0001         estimate D2E/DX2                !
 ! D5    D(2,1,7,8)              0.0006         estimate D2E/DX2                !
 ! D6    D(2,1,7,11)           179.9995         estimate D2E/DX2                !
 ! D7    D(5,1,7,8)           -179.9997         estimate D2E/DX2                !
 ! D8    D(5,1,7,11)            -0.0007         estimate D2E/DX2                !
 ! D9    D(4,3,9,5)           -179.9978         estimate D2E/DX2                !
 ! D10   D(4,3,9,10)             0.0013         estimate D2E/DX2                !
 ! D11   D(11,3,9,5)             0.0006         estimate D2E/DX2                !
 ! D12   D(11,3,9,10)          179.9997         estimate D2E/DX2                !
 ! D13   D(4,3,11,7)           179.9969         estimate D2E/DX2                !
 ! D14   D(4,3,11,12)           -0.0038         estimate D2E/DX2                !
 ! D15   D(9,3,11,7)            -0.0014         estimate D2E/DX2                !
 ! D16   D(9,3,11,12)          179.9978         estimate D2E/DX2                !
 ! D17   D(1,5,9,3)              0.0002         estimate D2E/DX2                !
 ! D18   D(1,5,9,10)          -179.9989         estimate D2E/DX2                !
 ! D19   D(6,5,9,3)            179.9994         estimate D2E/DX2                !
 ! D20   D(6,5,9,10)             0.0004         estimate D2E/DX2                !
 ! D21   D(1,7,11,3)             0.0015         estimate D2E/DX2                !
 ! D22   D(1,7,11,12)         -179.9978         estimate D2E/DX2                !
 ! D23   D(8,7,11,3)          -179.9995         estimate D2E/DX2                !
 ! D24   D(8,7,11,12)            0.0011         estimate D2E/DX2                !
 ! D25   D(3,11,12,13)           0.0031         estimate D2E/DX2                !
 ! D26   D(7,11,12,13)        -179.9976         estimate D2E/DX2                !
 ! D27   D(11,12,13,14)        179.9645         estimate D2E/DX2                !
 ! D28   D(11,12,13,15)        -61.3441         estimate D2E/DX2                !
 ! D29   D(11,12,13,16)         61.2724         estimate D2E/DX2                !
 --------------------------------------------------------------------------------
 Maximum allowed force set to 1.00D+20.
 Trust Radius=3.00D-01 FncErr=1.00D-07 GrdErr=1.00D-06
 Number of steps in this run=    100 maximum allowed number of steps=    100.
 GradGradGradGradGradGradGradGradGradGradGradGradGradGradGradGradGradGrad

 Leave Link  103 at Thu Sep 10 00:23:22 2015, MaxMem=  134217728 cpu:       0.0
 (Enter /apps/Gausian/g09/l202.exe)
                          Input orientation:                          
 ---------------------------------------------------------------------
 Center     Atomic      Atomic             Coordinates (Angstroms)
 Number     Number       Type             X           Y           Z
 ---------------------------------------------------------------------
      1          6           0        1.398549   -0.000897   -0.000099
      2          1           0        2.489304   -0.018007   -0.000220
      3          6           0       -1.393543    0.036967    0.000198
      4          1           0       -2.479487    0.069049    0.000275
      5          6           0        0.719464    1.218764   -0.000054
      6          1           0        1.274289    2.156097   -0.000145
      7          6           0        0.696622   -1.193160    0.000003
      8          1           0        1.209926   -2.154049   -0.000025
      9          6           0       -0.668407    1.226350    0.000092
     10          1           0       -1.206944    2.174863    0.000110
     11          6           0       -0.710839   -1.185370    0.000169
     12          8           0       -1.300830   -2.455048    0.000307
     13          6           0       -2.749826   -2.407483    0.000420
     14          1           0       -3.086778   -3.452939   -0.000132
     15          1           0       -3.147732   -1.904583    0.896159
     16          1           0       -3.147829   -1.903589   -0.894717
 ---------------------------------------------------------------------
                    Distance matrix (angstroms):
                    1          2          3          4          5
     1  C    0.000000
     2  H    1.090889   0.000000
     3  C    2.792349   3.883236   0.000000
     4  H    3.878667   4.969554   1.086418   0.000000
     5  C    1.395969   2.159152   2.421042   3.399284   0.000000
     6  H    2.160570   2.490580   3.407057   4.294951   1.089231
     7  C    1.383543   2.143524   2.425284   3.417724   2.412032
     8  H    2.161398   2.489876   3.402734   4.307428   3.408287
     9  C    2.403839   3.394048   1.393002   2.149269   1.387892
    10  H    3.394485   4.297782   2.146024   2.460451   2.150622
    11  C    2.419193   3.406413   1.400069   2.168336   2.797432
    12  O    3.648219   4.506028   2.493739   2.785731   4.192670
    13  C    4.795902   5.758305   2.795503   2.491243   5.018530
    14  H    5.659925   6.549156   3.878980   3.573962   6.025968
    15  H    5.009588   6.011559   2.765780   2.268123   5.051109
    16  H    5.009005   6.011058   2.764806   2.266935   5.050294
                    6          7          8          9         10
     6  H    0.000000
     7  C    3.398709   0.000000
     8  H    4.310627   1.089398   0.000000
     9  C    2.153717   2.778009   3.867200   0.000000
    10  H    2.481304   3.868739   4.957897   1.090733   0.000000
    11  C    3.886661   1.407483   2.151204   2.412093   3.396658
    12  O    5.281467   2.362663   2.528734   3.735325   4.630863
    13  C    6.084387   3.654119   3.967854   4.187726   4.835119
    14  H    7.104941   4.406894   4.488739   5.267282   5.933459
    15  H    6.070153   4.011019   4.455846   4.093010   4.605588
    16  H    6.069303   4.010616   4.455697   4.092033   4.604511
                   11         12         13         14         15
    11  C    0.000000
    12  O    1.400061   0.000000
    13  C    2.377189   1.449776   0.000000
    14  H    3.284350   2.045824   1.098415   0.000000
    15  H    2.694163   2.125232   1.101629   1.790100   0.000000
    16  H    2.693618   2.125225   1.101629   1.790110   1.790876
                   16
    16  H    0.000000
 Symmetry turned off by external request.
 Stoichiometry    C7H8O
 Framework group  C1[X(C7H8O)]
 Deg. of freedom    42
 Full point group                 C1      NOp   1
 Rotational constants (GHZ):      4.9693578      1.5671386      1.2005623
 Leave Link  202 at Thu Sep 10 00:23:22 2015, MaxMem=  134217728 cpu:       0.0
 (Enter /apps/Gausian/g09/l301.exe)
 Standard basis: 6-311+G(d,p) (5D, 7F)
 Ernie: Thresh=  0.10000D-02 Tol=  0.10000D-05 Strict=F.
 Integral buffers will be    131072 words long.
 Raffenetti 2 integral format.
 Two-electron integral symmetry is turned off.
   224 basis functions,   352 primitive gaussians,   232 cartesian basis functions
    29 alpha electrons       29 beta electrons
       nuclear repulsion energy       344.3974269656 Hartrees.
 IExCor=  402 DFT=T Ex+Corr=B3LYP ExCW=0 ScaHFX=  0.200000
 ScaDFX=  0.800000  0.720000  1.000000  0.810000 ScalE2=  1.000000  1.000000
 IRadAn=      0 IRanWt=     -1 IRanGd=            0 ICorTp=0
 NAtoms=   16 NActive=   16 NUniq=   16 SFac= 1.00D+00 NAtFMM=   60 NAOKFM=F Big=F
 Leave Link  301 at Thu Sep 10 00:23:22 2015, MaxMem=  134217728 cpu:       0.1
 (Enter /apps/Gausian/g09/l302.exe)
 NPDir=0 NMtPBC=     1 NCelOv=     1 NCel=       1 NClECP=     1 NCelD=      1
         NCelK=      1 NCelE2=     1 NClLst=     1 CellRange=     0.0.
 One-electron integrals computed using PRISM.
 NBasis=   224 RedAO= T  NBF=   224
 NBsUse=   224 1.00D-06 NBFU=   224
 Precomputing XC quadrature grid using
 IXCGrd= 2 IRadAn=           0 IRanWt=          -1 IRanGd=           0 AccXCQ= 0.00D+00.
 NRdTot=    1031 NPtTot=      131318 NUsed=      138756 NTot=      138788
 NSgBfM=   232   232   232   232   232 NAtAll=    16    16.
 Leave Link  302 at Thu Sep 10 00:23:22 2015, MaxMem=  134217728 cpu:       0.5
 (Enter /apps/Gausian/g09/l303.exe)
 DipDrv:  MaxL=1.
 Leave Link  303 at Thu Sep 10 00:23:22 2015, MaxMem=  134217728 cpu:       0.1
 (Enter /apps/Gausian/g09/l401.exe)
 Harris functional with IExCor=  402 diagonalized for initial guess.
 ExpMin= 4.38D-02 ExpMax= 8.59D+03 ExpMxC= 1.30D+03 IAcc=2 IRadAn=         4 AccDes= 0.00D+00
 HarFok:  IExCor=  402 AccDes= 0.00D+00 IRadAn=         4 IDoV= 1
 ScaDFX=  1.000000  1.000000  1.000000  1.000000
 FoFCou: FMM=F IPFlag=           0 FMFlag=      100000 FMFlg1=           0
         NFxFlg=           0 DoJE=T BraDBF=F KetDBF=T FulRan=T
         Omega=  0.000000  0.000000  1.000000  0.000000  0.000000 ICntrl=     500 IOpCl=  0
         NMat0=    1 NMatS0=    1 NMatT0=    0 NMatD0=    1 NMtDS0=    0 NMtDT0=    0
         I1Cent=           4 NGrid=           0.
 Symmetry not used in FoFCou.
 Harris En= -346.880111186218    
 Leave Link  401 at Thu Sep 10 00:23:24 2015, MaxMem=  134217728 cpu:       3.4
 (Enter /apps/Gausian/g09/l502.exe)
 Closed shell SCF:
 Requested convergence on RMS density matrix=1.00D-08 within 128 cycles.
 Requested convergence on MAX density matrix=1.00D-06.
 Requested convergence on             energy=1.00D-06.
 No special actions if energy rises.
 Using DIIS extrapolation, IDIIS=  1040.
 Two-electron integral symmetry not used.
       138599 words used for storage of precomputed grid.
 IEnd=      321033 IEndB=      321033 NGot=   134217728 MDV=   133967392
 LenX=   133967392 LenY=   133913127
 Fock matrices will be formed incrementally for  20 cycles.

 Cycle   1  Pass 1  IDiag  1:
 FoFCou: FMM=F IPFlag=           0 FMFlag=      100000 FMFlg1=           0
         NFxFlg=           0 DoJE=F BraDBF=F KetDBF=F FulRan=T
         Omega=  0.000000  0.000000  1.000000  0.000000  0.000000 ICntrl=       0 IOpCl=  0
         NMat0=    1 NMatS0=    1 NMatT0=    0 NMatD0=    1 NMtDS0=    0 NMtDT0=    0
         I1Cent=           0 NGrid=           0.
 Symmetry not used in FoFCou.
 E= -346.674710763526    
 DIIS: error= 3.43D-02 at cycle   1 NSaved=   1.
 NSaved= 1 IEnMin= 1 EnMin= -346.674710763526     IErMin= 1 ErrMin= 3.43D-02
 ErrMax= 3.43D-02 EMaxC= 1.00D-01 BMatC= 1.96D-01 BMatP= 1.96D-01
 IDIUse=3 WtCom= 6.57D-01 WtEn= 3.43D-01
 Coeff-Com:  0.100D+01
 Coeff-En:   0.100D+01
 Coeff:      0.100D+01
 Gap=     0.247 Goal=   None    Shift=    0.000
 GapD=    0.247 DampG=1.000 DampE=0.500 DampFc=0.5000 IDamp=-1.
 Damping current iteration by 5.00D-01
 RMSDP=8.62D-03 MaxDP=4.41D-01              OVMax= 2.22D-01

 Cycle   2  Pass 1  IDiag  1:
 RMSU=  3.04D-03    CP:  1.01D+00
 E= -346.756186925788     Delta-E=       -0.081476162262 Rises=F Damp=T
 DIIS: error= 5.37D-03 at cycle   2 NSaved=   2.
 NSaved= 2 IEnMin= 2 EnMin= -346.756186925788     IErMin= 2 ErrMin= 5.37D-03
 ErrMax= 5.37D-03 EMaxC= 1.00D-01 BMatC= 1.27D-02 BMatP= 1.96D-01
 IDIUse=3 WtCom= 9.46D-01 WtEn= 5.37D-02
 Coeff-Com:  0.406D-01 0.959D+00
 Coeff-En:   0.129D+00 0.871D+00
 Coeff:      0.454D-01 0.955D+00
 Gap=     0.242 Goal=   None    Shift=    0.000
 RMSDP=1.97D-03 MaxDP=7.95D-02 DE=-8.15D-02 OVMax= 1.61D-01

 Cycle   3  Pass 1  IDiag  1:
 RMSU=  1.37D-03    CP:  1.00D+00  9.35D-01
 E= -346.854914923899     Delta-E=       -0.098727998111 Rises=F Damp=F
 DIIS: error= 9.72D-03 at cycle   3 NSaved=   3.
 NSaved= 3 IEnMin= 3 EnMin= -346.854914923899     IErMin= 2 ErrMin= 5.37D-03
 ErrMax= 9.72D-03 EMaxC= 1.00D-01 BMatC= 9.49D-03 BMatP= 1.27D-02
 IDIUse=3 WtCom= 9.03D-01 WtEn= 9.72D-02
 Coeff-Com: -0.400D-01 0.464D+00 0.576D+00
 Coeff-En:   0.000D+00 0.000D+00 0.100D+01
 Coeff:     -0.361D-01 0.419D+00 0.617D+00
 Gap=     0.221 Goal=   None    Shift=    0.000
 RMSDP=1.64D-03 MaxDP=1.68D-01 DE=-9.87D-02 OVMax= 7.36D-02

 Cycle   4  Pass 1  IDiag  1:
 RMSU=  7.60D-04    CP:  9.56D-01  8.47D-01  7.40D-01
 E= -346.860299383190     Delta-E=       -0.005384459291 Rises=F Damp=F
 DIIS: error= 6.37D-03 at cycle   4 NSaved=   4.
 NSaved= 4 IEnMin= 4 EnMin= -346.860299383190     IErMin= 2 ErrMin= 5.37D-03
 ErrMax= 6.37D-03 EMaxC= 1.00D-01 BMatC= 4.35D-03 BMatP= 9.49D-03
 IDIUse=3 WtCom= 9.36D-01 WtEn= 6.37D-02
 Coeff-Com: -0.318D-01 0.155D+00 0.422D+00 0.455D+00
 Coeff-En:   0.000D+00 0.000D+00 0.345D+00 0.655D+00
 Coeff:     -0.298D-01 0.145D+00 0.417D+00 0.467D+00
 Gap=     0.215 Goal=   None    Shift=    0.000
 RMSDP=6.02D-04 MaxDP=1.79D-02 DE=-5.38D-03 OVMax= 3.17D-02

 Cycle   5  Pass 1  IDiag  1:
 RMSU=  2.80D-04    CP:  9.60D-01  9.24D-01  7.63D-01  7.31D-01
 E= -346.864876096087     Delta-E=       -0.004576712897 Rises=F Damp=F
 DIIS: error= 7.89D-04 at cycle   5 NSaved=   5.
 NSaved= 5 IEnMin= 5 EnMin= -346.864876096087     IErMin= 5 ErrMin= 7.89D-04
 ErrMax= 7.89D-04 EMaxC= 1.00D-01 BMatC= 8.39D-05 BMatP= 4.35D-03
 IDIUse=3 WtCom= 9.92D-01 WtEn= 7.89D-03
 Coeff-Com: -0.892D-02 0.253D-01 0.119D+00 0.196D+00 0.669D+00
 Coeff-En:   0.000D+00 0.000D+00 0.000D+00 0.000D+00 0.100D+01
 Coeff:     -0.885D-02 0.251D-01 0.118D+00 0.194D+00 0.672D+00
 Gap=     0.214 Goal=   None    Shift=    0.000
 RMSDP=1.06D-04 MaxDP=4.77D-03 DE=-4.58D-03 OVMax= 2.98D-03

 Cycle   6  Pass 1  IDiag  1:
 RMSU=  4.22D-05    CP:  9.59D-01  9.09D-01  7.73D-01  7.50D-01  8.79D-01
 E= -346.864945349437     Delta-E=       -0.000069253350 Rises=F Damp=F
 DIIS: error= 2.28D-04 at cycle   6 NSaved=   6.
 NSaved= 6 IEnMin= 6 EnMin= -346.864945349437     IErMin= 6 ErrMin= 2.28D-04
 ErrMax= 2.28D-04 EMaxC= 1.00D-01 BMatC= 1.08D-05 BMatP= 8.39D-05
 IDIUse=3 WtCom= 9.98D-01 WtEn= 2.28D-03
 Coeff-Com: -0.331D-02 0.538D-02 0.435D-01 0.843D-01 0.374D+00 0.496D+00
 Coeff-En:   0.000D+00 0.000D+00 0.000D+00 0.000D+00 0.000D+00 0.100D+01
 Coeff:     -0.330D-02 0.536D-02 0.434D-01 0.841D-01 0.373D+00 0.497D+00
 Gap=     0.215 Goal=   None    Shift=    0.000
 RMSDP=4.48D-05 MaxDP=2.47D-03 DE=-6.93D-05 OVMax= 1.05D-03

 Cycle   7  Pass 1  IDiag  1:
 RMSU=  1.30D-05    CP:  9.60D-01  9.14D-01  7.77D-01  7.44D-01  8.58D-01
                    CP:  5.58D-01
 E= -346.864954496949     Delta-E=       -0.000009147511 Rises=F Damp=F
 DIIS: error= 8.47D-05 at cycle   7 NSaved=   7.
 NSaved= 7 IEnMin= 7 EnMin= -346.864954496949     IErMin= 7 ErrMin= 8.47D-05
 ErrMax= 8.47D-05 EMaxC= 1.00D-01 BMatC= 4.78D-07 BMatP= 1.08D-05
 IDIUse=1 WtCom= 1.00D+00 WtEn= 0.00D+00
 Coeff-Com: -0.832D-03 0.570D-03 0.124D-01 0.262D-01 0.133D+00 0.240D+00
 Coeff-Com:  0.589D+00
 Coeff:     -0.832D-03 0.570D-03 0.124D-01 0.262D-01 0.133D+00 0.240D+00
 Coeff:      0.589D+00
 Gap=     0.215 Goal=   None    Shift=    0.000
 RMSDP=1.19D-05 MaxDP=8.30D-04 DE=-9.15D-06 OVMax= 3.97D-04

 Cycle   8  Pass 1  IDiag  1:
 RMSU=  4.29D-06    CP:  9.60D-01  9.13D-01  7.76D-01  7.47D-01  8.61D-01
                    CP:  6.25D-01  7.23D-01
 E= -346.864954854968     Delta-E=       -0.000000358019 Rises=F Damp=F
 DIIS: error= 3.81D-05 at cycle   8 NSaved=   8.
 NSaved= 8 IEnMin= 8 EnMin= -346.864954854968     IErMin= 8 ErrMin= 3.81D-05
 ErrMax= 3.81D-05 EMaxC= 1.00D-01 BMatC= 1.38D-07 BMatP= 4.78D-07
 IDIUse=1 WtCom= 1.00D+00 WtEn= 0.00D+00
 Coeff-Com:  0.625D-04-0.583D-03 0.447D-03 0.204D-02 0.206D-01 0.669D-01
 Coeff-Com:  0.384D+00 0.526D+00
 Coeff:      0.625D-04-0.583D-03 0.447D-03 0.204D-02 0.206D-01 0.669D-01
 Coeff:      0.384D+00 0.526D+00
 Gap=     0.215 Goal=   None    Shift=    0.000
 RMSDP=3.75D-06 MaxDP=1.67D-04 DE=-3.58D-07 OVMax= 1.54D-04

 Cycle   9  Pass 1  IDiag  1:
 RMSU=  1.83D-06    CP:  9.60D-01  9.13D-01  7.77D-01  7.46D-01  8.62D-01
                    CP:  6.18D-01  7.61D-01  8.12D-01
 E= -346.864955000723     Delta-E=       -0.000000145755 Rises=F Damp=F
 DIIS: error= 2.89D-06 at cycle   9 NSaved=   9.
 NSaved= 9 IEnMin= 9 EnMin= -346.864955000723     IErMin= 9 ErrMin= 2.89D-06
 ErrMax= 2.89D-06 EMaxC= 1.00D-01 BMatC= 1.96D-09 BMatP= 1.38D-07
 IDIUse=1 WtCom= 1.00D+00 WtEn= 0.00D+00
 Coeff-Com:  0.608D-04-0.198D-03-0.421D-03-0.593D-03 0.525D-03 0.977D-02
 Coeff-Com:  0.101D+00 0.178D+00 0.712D+00
 Coeff:      0.608D-04-0.198D-03-0.421D-03-0.593D-03 0.525D-03 0.977D-02
 Coeff:      0.101D+00 0.178D+00 0.712D+00
 Gap=     0.215 Goal=   None    Shift=    0.000
 RMSDP=4.81D-07 MaxDP=2.23D-05 DE=-1.46D-07 OVMax= 1.79D-05

 Cycle  10  Pass 1  IDiag  1:
 RMSU=  2.51D-07    CP:  9.60D-01  9.13D-01  7.77D-01  7.46D-01  8.62D-01
                    CP:  6.19D-01  7.71D-01  8.15D-01  9.38D-01
 E= -346.864955002088     Delta-E=       -0.000000001365 Rises=F Damp=F
 DIIS: error= 2.20D-06 at cycle  10 NSaved=  10.
 NSaved=10 IEnMin=10 EnMin= -346.864955002088     IErMin=10 ErrMin= 2.20D-06
 ErrMax= 2.20D-06 EMaxC= 1.00D-01 BMatC= 6.17D-10 BMatP= 1.96D-09
 IDIUse=1 WtCom= 1.00D+00 WtEn= 0.00D+00
 Coeff-Com:  0.287D-04-0.722D-04-0.261D-03-0.466D-03-0.111D-02 0.365D-03
 Coeff-Com:  0.250D-01 0.560D-01 0.404D+00 0.517D+00
 Coeff:      0.287D-04-0.722D-04-0.261D-03-0.466D-03-0.111D-02 0.365D-03
 Coeff:      0.250D-01 0.560D-01 0.404D+00 0.517D+00
 Gap=     0.215 Goal=   None    Shift=    0.000
 RMSDP=1.88D-07 MaxDP=1.16D-05 DE=-1.36D-09 OVMax= 6.88D-06

 Cycle  11  Pass 1  IDiag  1:
 RMSU=  8.92D-08    CP:  9.60D-01  9.13D-01  7.77D-01  7.46D-01  8.62D-01
                    CP:  6.19D-01  7.72D-01  8.17D-01  9.34D-01  8.00D-01
 E= -346.864955002673     Delta-E=       -0.000000000585 Rises=F Damp=F
 DIIS: error= 3.11D-07 at cycle  11 NSaved=  11.
 NSaved=11 IEnMin=11 EnMin= -346.864955002673     IErMin=11 ErrMin= 3.11D-07
 ErrMax= 3.11D-07 EMaxC= 1.00D-01 BMatC= 1.20D-11 BMatP= 6.17D-10
 IDIUse=1 WtCom= 1.00D+00 WtEn= 0.00D+00
 Coeff-Com:  0.243D-05-0.179D-05-0.325D-04-0.891D-04-0.371D-03-0.780D-03
 Coeff-Com: -0.318D-02-0.916D-03 0.482D-01 0.136D+00 0.821D+00
 Coeff:      0.243D-05-0.179D-05-0.325D-04-0.891D-04-0.371D-03-0.780D-03
 Coeff:     -0.318D-02-0.916D-03 0.482D-01 0.136D+00 0.821D+00
 Gap=     0.215 Goal=   None    Shift=    0.000
 RMSDP=6.70D-08 MaxDP=3.56D-06 DE=-5.85D-10 OVMax= 2.11D-06

 Cycle  12  Pass 1  IDiag  1:
 RMSU=  2.45D-08    CP:  9.60D-01  9.13D-01  7.77D-01  7.46D-01  8.62D-01
                    CP:  6.19D-01  7.72D-01  8.19D-01  9.46D-01  8.06D-01
                    CP:  8.91D-01
 E= -346.864955002684     Delta-E=       -0.000000000011 Rises=F Damp=F
 DIIS: error= 2.80D-07 at cycle  12 NSaved=  12.
 NSaved=12 IEnMin=12 EnMin= -346.864955002684     IErMin=12 ErrMin= 2.80D-07
 ErrMax= 2.80D-07 EMaxC= 1.00D-01 BMatC= 3.84D-12 BMatP= 1.20D-11
 IDIUse=1 WtCom= 1.00D+00 WtEn= 0.00D+00
 Coeff-Com:  0.334D-06 0.142D-05-0.564D-05-0.286D-04-0.136D-03-0.365D-03
 Coeff-Com: -0.243D-02-0.244D-02 0.117D-01 0.558D-01 0.463D+00 0.474D+00
 Coeff:      0.334D-06 0.142D-05-0.564D-05-0.286D-04-0.136D-03-0.365D-03
 Coeff:     -0.243D-02-0.244D-02 0.117D-01 0.558D-01 0.463D+00 0.474D+00
 Gap=     0.215 Goal=   None    Shift=    0.000
 RMSDP=1.87D-08 MaxDP=1.07D-06 DE=-1.13D-11 OVMax= 8.96D-07

 Cycle  13  Pass 1  IDiag  1:
 RMSU=  7.11D-09    CP:  9.60D-01  9.13D-01  7.77D-01  7.46D-01  8.62D-01
                    CP:  6.19D-01  7.72D-01  8.20D-01  9.48D-01  8.13D-01
                    CP:  9.24D-01  7.48D-01
 E= -346.864955002690     Delta-E=       -0.000000000006 Rises=F Damp=F
 DIIS: error= 4.66D-08 at cycle  13 NSaved=  13.
 NSaved=13 IEnMin=13 EnMin= -346.864955002690     IErMin=13 ErrMin= 4.66D-08
 ErrMax= 4.66D-08 EMaxC= 1.00D-01 BMatC= 3.50D-13 BMatP= 3.84D-12
 IDIUse=1 WtCom= 1.00D+00 WtEn= 0.00D+00
 Coeff-Com: -0.235D-06 0.720D-06 0.361D-05 0.377D-05 0.392D-05-0.138D-04
 Coeff-Com: -0.456D-03-0.111D-02-0.521D-02-0.599D-02 0.577D-02 0.231D+00
 Coeff-Com:  0.776D+00
 Coeff:     -0.235D-06 0.720D-06 0.361D-05 0.377D-05 0.392D-05-0.138D-04
 Coeff:     -0.456D-03-0.111D-02-0.521D-02-0.599D-02 0.577D-02 0.231D+00
 Coeff:      0.776D+00
 Gap=     0.215 Goal=   None    Shift=    0.000
 RMSDP=6.90D-09 MaxDP=4.30D-07 DE=-6.48D-12 OVMax= 2.35D-07

 SCF Done:  E(RB3LYP) =  -346.864955003     A.U. after   13 cycles
             Convg  =    0.6905D-08             -V/T =  2.0048
 KE= 3.452160484274D+02 PE=-1.496081298195D+03 EE= 4.596028677995D+02
 Leave Link  502 at Thu Sep 10 00:24:36 2015, MaxMem=  134217728 cpu:     143.8
 (Enter /apps/Gausian/g09/l601.exe)
 Copying SCF densities to generalized density rwf, IOpCl= 0 IROHF=0.

 **********************************************************************

            Population analysis using the SCF density.

 **********************************************************************

 Alpha  occ. eigenvalues --  -19.16001 -10.23917 -10.23006 -10.18079 -10.17940
 Alpha  occ. eigenvalues --  -10.17894 -10.17431 -10.17208  -1.05787  -0.85830
 Alpha  occ. eigenvalues --   -0.75853  -0.75154  -0.69923  -0.61392  -0.59695
 Alpha  occ. eigenvalues --   -0.53956  -0.48735  -0.48163  -0.46804  -0.45209
 Alpha  occ. eigenvalues --   -0.42922  -0.41571  -0.38342  -0.37437  -0.36445
 Alpha  occ. eigenvalues --   -0.33905  -0.32737  -0.26200  -0.23177
 Alpha virt. eigenvalues --   -0.01725  -0.00537  -0.00051   0.01312   0.02194
 Alpha virt. eigenvalues --    0.03343   0.03860   0.04514   0.05016   0.06916
 Alpha virt. eigenvalues --    0.07308   0.07431   0.08800   0.09133   0.10898
 Alpha virt. eigenvalues --    0.11651   0.12703   0.13115   0.13165   0.13968
 Alpha virt. eigenvalues --    0.14513   0.14772   0.15256   0.15720   0.17450
 Alpha virt. eigenvalues --    0.17583   0.18287   0.19460   0.20229   0.20461
 Alpha virt. eigenvalues --    0.20791   0.21260   0.21781   0.22440   0.22828
 Alpha virt. eigenvalues --    0.24084   0.24307   0.25185   0.26101   0.27194
 Alpha virt. eigenvalues --    0.27366   0.28242   0.31340   0.32284   0.33159
 Alpha virt. eigenvalues --    0.34748   0.35861   0.37296   0.38813   0.42321
 Alpha virt. eigenvalues --    0.44452   0.47558   0.51122   0.52798   0.53135
 Alpha virt. eigenvalues --    0.53425   0.53579   0.54277   0.57140   0.57645
 Alpha virt. eigenvalues --    0.59002   0.60269   0.62070   0.62175   0.63058
 Alpha virt. eigenvalues --    0.64611   0.66674   0.67969   0.69285   0.70114
 Alpha virt. eigenvalues --    0.72288   0.73554   0.74643   0.76741   0.79129
 Alpha virt. eigenvalues --    0.82686   0.83481   0.84481   0.85536   0.86107
 Alpha virt. eigenvalues --    0.87205   0.90495   0.94004   0.97380   0.98871
 Alpha virt. eigenvalues --    1.00803   1.01437   1.01876   1.02548   1.07788
 Alpha virt. eigenvalues --    1.08894   1.09316   1.12647   1.14827   1.26849
 Alpha virt. eigenvalues --    1.27629   1.27980   1.33828   1.40110   1.42845
 Alpha virt. eigenvalues --    1.45303   1.49067   1.51592   1.52744   1.54661
 Alpha virt. eigenvalues --    1.56683   1.56766   1.56982   1.60671   1.63011
 Alpha virt. eigenvalues --    1.64518   1.67419   1.67477   1.69517   1.72684
 Alpha virt. eigenvalues --    1.73383   1.76989   1.77731   1.79893   1.83264
 Alpha virt. eigenvalues --    1.88312   1.91083   1.92967   1.94608   1.95198
 Alpha virt. eigenvalues --    1.96194   1.97316   2.00442   2.03627   2.04643
 Alpha virt. eigenvalues --    2.07334   2.08007   2.10700   2.16593   2.26541
 Alpha virt. eigenvalues --    2.29604   2.33706   2.37560   2.39018   2.40054
 Alpha virt. eigenvalues --    2.41145   2.45500   2.47018   2.49890   2.53215
 Alpha virt. eigenvalues --    2.61542   2.63987   2.64203   2.66486   2.70408
 Alpha virt. eigenvalues --    2.71810   2.73297   2.75959   2.76051   2.76896
 Alpha virt. eigenvalues --    2.78752   2.79934   2.81564   2.86448   2.87055
 Alpha virt. eigenvalues --    2.88814   2.92732   3.04858   3.05580   3.07652
 Alpha virt. eigenvalues --    3.09185   3.15721   3.19177   3.30015   3.35918
 Alpha virt. eigenvalues --    3.39683   3.48797   3.50661   3.60082   3.65638
 Alpha virt. eigenvalues --    3.74120   3.80256   3.97705   4.02347   4.06025
 Alpha virt. eigenvalues --    4.12552   4.14534   4.19196   4.84453   5.01119
 Alpha virt. eigenvalues --    5.39316   5.69047  23.57732  23.88302  23.92144
 Alpha virt. eigenvalues --   23.94682  24.06181  24.10636  24.19861  49.94385
          Condensed to atoms (all electrons):
              1          2          3          4          5          6
     1  C    5.174621   0.396044  -0.113364   0.011504   0.488277   0.009075
     2  H    0.396044   0.542568   0.012274   0.000074   0.005193  -0.007907
     3  C   -0.113364   0.012274   7.292161   0.413407   0.067953  -0.016653
     4  H    0.011504   0.000074   0.413407   0.545034  -0.010733  -0.000279
     5  C    0.488277   0.005193   0.067953  -0.010733   4.965023   0.371707
     6  H    0.009075  -0.007907  -0.016653  -0.000279   0.371707   0.543557
     7  C   -0.208802  -0.078259  -1.666631  -0.067182   0.068532  -0.037436
     8  H   -0.003780  -0.007867  -0.010851  -0.000139  -0.005387  -0.000227
     9  C    0.179414  -0.013426   0.226881   0.016539   0.513722  -0.000518
    10  H   -0.001200  -0.000306   0.009492  -0.008057  -0.010710  -0.008012
    11  C    0.202166   0.024639  -0.628455  -0.010343  -0.375466   0.023886
    12  O    0.029501  -0.000829   0.101076  -0.016521  -0.010542   0.000223
    13  C   -0.002323   0.000624  -0.191129   0.005702  -0.003915   0.000352
    14  H    0.000539  -0.000001  -0.014968   0.000464  -0.000478   0.000000
    15  H    0.000714   0.000000   0.027191  -0.000847   0.000766   0.000001
    16  H    0.000712   0.000000   0.027130  -0.000850   0.000756   0.000001
              7          8          9         10         11         12
     1  C   -0.208802  -0.003780   0.179414  -0.001200   0.202166   0.029501
     2  H   -0.078259  -0.007867  -0.013426  -0.000306   0.024639  -0.000829
     3  C   -1.666631  -0.010851   0.226881   0.009492  -0.628455   0.101076
     4  H   -0.067182  -0.000139   0.016539  -0.008057  -0.010343  -0.016521
     5  C    0.068532  -0.005387   0.513722  -0.010710  -0.375466  -0.010542
     6  H   -0.037436  -0.000227  -0.000518  -0.008012   0.023886   0.000223
     7  C    9.102319   0.330080  -0.313145  -0.015758  -0.392617  -0.558358
     8  H    0.330080   0.528587  -0.007375   0.000063   0.055009  -0.007541
     9  C   -0.313145  -0.007375   5.955030   0.348254  -0.493155   0.064801
    10  H   -0.015758   0.000063   0.348254   0.544288   0.013893  -0.000380
    11  C   -0.392617   0.055009  -0.493155   0.013893   7.507404   0.355312
    12  O   -0.558358  -0.007541   0.064801  -0.000380   0.355312   8.190775
    13  C    0.032263   0.002196  -0.117377   0.002429   0.071454   0.155440
    14  H    0.005736  -0.000063   0.000381  -0.000003   0.034668  -0.059208
    15  H   -0.004053   0.000057   0.006279   0.000028  -0.043451  -0.028266
    16  H   -0.004037   0.000057   0.006180   0.000028  -0.043323  -0.028242
             13         14         15         16
     1  C   -0.002323   0.000539   0.000714   0.000712
     2  H    0.000624  -0.000001   0.000000   0.000000
     3  C   -0.191129  -0.014968   0.027191   0.027130
     4  H    0.005702   0.000464  -0.000847  -0.000850
     5  C   -0.003915  -0.000478   0.000766   0.000756
     6  H    0.000352   0.000000   0.000001   0.000001
     7  C    0.032263   0.005736  -0.004053  -0.004037
     8  H    0.002196  -0.000063   0.000057   0.000057
     9  C   -0.117377   0.000381   0.006279   0.006180
    10  H    0.002429  -0.000003   0.000028   0.000028
    11  C    0.071454   0.034668  -0.043451  -0.043323
    12  O    0.155440  -0.059208  -0.028266  -0.028242
    13  C    5.083967   0.405164   0.407450   0.407447
    14  H    0.405164   0.520326  -0.025727  -0.025720
    15  H    0.407450  -0.025727   0.566428  -0.053293
    16  H    0.407447  -0.025720  -0.053293   0.566490
 Mulliken atomic charges:
              1
     1  C   -0.163099
     2  H    0.127177
     3  C    0.464487
     4  H    0.122228
     5  C   -0.064695
     6  H    0.122231
     7  C   -0.192652
     8  H    0.127181
     9  C   -0.372484
    10  H    0.125952
    11  C   -0.301621
    12  O   -0.187240
    13  C   -0.259746
    14  H    0.158891
    15  H    0.146725
    16  H    0.146664
 Sum of Mulliken atomic charges =   0.00000
 Mulliken charges with hydrogens summed into heavy atoms:
              1
     1  C   -0.035922
     3  C    0.586716
     5  C    0.057535
     7  C   -0.065470
     9  C   -0.246532
    11  C   -0.301621
    12  O   -0.187240
    13  C    0.192534
 Sum of Mulliken charges with hydrogens summed into heavy atoms =   0.00000
 Electronic spatial extent (au):  <R**2>=           1148.3322
 Charge=              0.0000 electrons
 Dipole moment (field-independent basis, Debye):
    X=             -1.3425    Y=              0.4808    Z=              0.0000  Tot=              1.4260
 Quadrupole moment (field-independent basis, Debye-Ang):
   XX=            -38.1216   YY=            -47.3241   ZZ=            -51.9070
   XY=              2.6280   XZ=             -0.0013   YZ=             -0.0001
 Traceless Quadrupole moment (field-independent basis, Debye-Ang):
   XX=              7.6626   YY=             -1.5398   ZZ=             -6.1228
   XY=              2.6280   XZ=             -0.0013   YZ=             -0.0001
 Octapole moment (field-independent basis, Debye-Ang**2):
  XXX=             62.2348  YYY=             94.6073  ZZZ=             -0.0185  XYY=             20.1292
  XXY=             13.8502  XXZ=             -0.0044  XZZ=             25.7369  YZZ=             28.0027
  YYZ=             -0.0081  XYZ=              0.0013
 Hexadecapole moment (field-independent basis, Debye-Ang**3):
 XXXX=           -646.8691 YYYY=           -744.1458 ZZZZ=            -67.5045 XXXY=           -150.5802
 XXXZ=              0.0354 YYYX=           -175.9983 YYYZ=              0.0453 ZZZX=              0.0441
 ZZZY=              0.0350 XXYY=           -197.3830 XXZZ=           -136.0253 YYZZ=           -144.8473
 XXYZ=              0.0059 YYXZ=              0.0137 ZZXY=            -65.3253
 N-N= 3.443974269656D+02 E-N=-1.496081297482D+03  KE= 3.452160484274D+02
 No NMR shielding tensors so no spin-rotation constants.
 Leave Link  601 at Thu Sep 10 00:24:36 2015, MaxMem=  134217728 cpu:       0.3
 (Enter /apps/Gausian/g09/l701.exe)
 Compute integral first derivatives.
 ... and contract with generalized density number  0.
 Leave Link  701 at Thu Sep 10 00:24:36 2015, MaxMem=  134217728 cpu:       0.3
 (Enter /apps/Gausian/g09/l702.exe)
 L702 exits ... SP integral derivatives will be done elsewhere.
 Leave Link  702 at Thu Sep 10 00:24:36 2015, MaxMem=  134217728 cpu:       0.0
 (Enter /apps/Gausian/g09/l703.exe)
 Compute integral first derivatives, UseDBF=F ICtDFT=           0.
 Integral derivatives from FoFDir, PRISM(SPDF).
 Calling FoFJK, ICntrl=      2127 FMM=F ISym2X=0 I1Cent= 0 IOpClX= 0 NMat=1 NMatS=1 NMatT=0.
 FoFCou: FMM=F IPFlag=           0 FMFlag=      100000 FMFlg1=         800
         NFxFlg=           0 DoJE=F BraDBF=F KetDBF=F FulRan=T
         Omega=  0.000000  0.000000  1.000000  0.000000  0.000000 ICntrl=    2127 IOpCl=  0
         NMat0=    1 NMatS0=    1 NMatT0=    0 NMatD0=    1 NMtDS0=    0 NMtDT0=    0
         I1Cent=           0 NGrid=           0.
 Symmetry not used in FoFCou.
 Leave Link  703 at Thu Sep 10 00:24:51 2015, MaxMem=  134217728 cpu:      30.5
 (Enter /apps/Gausian/g09/l716.exe)
 Dipole        =-5.28183504D-01 1.89144696D-01-5.60336826D-06
 -------------------------------------------------------------------
 Center     Atomic                   Forces (Hartrees/Bohr)
 Number     Number              X              Y              Z
 -------------------------------------------------------------------
      1        6           0.005790788    0.001277550   -0.000001505
      2        1          -0.004297722   -0.000094893    0.000000387
      3        6          -0.006127545   -0.008893184    0.000000680
      4        1           0.003883840    0.000958292    0.000003597
      5        6           0.003171731    0.005578913   -0.000000705
      6        1          -0.001971597   -0.003149390    0.000000841
      7        6          -0.005221366   -0.006639111    0.000002839
      8        1          -0.002043262    0.003363892    0.000000101
      9        6          -0.000824783    0.006731391   -0.000001995
     10        1           0.001821398   -0.003728243    0.000000300
     11        6           0.007961479   -0.015007140    0.000003834
     12        8          -0.016817408    0.029827159   -0.000004376
     13        6           0.003396625   -0.010901031   -0.000005250
     14        1           0.003017240    0.005362121    0.000003542
     15        1           0.004131605   -0.002336141   -0.002657412
     16        1           0.004128976   -0.002350185    0.002655121
 -------------------------------------------------------------------
 Cartesian Forces:  Max     0.029827159 RMS     0.006582543
 Leave Link  716 at Thu Sep 10 00:24:51 2015, MaxMem=  134217728 cpu:       0.1
 (Enter /apps/Gausian/g09/l103.exe)

 GradGradGradGradGradGradGradGradGradGradGradGradGradGradGradGradGradGrad
 Berny optimization.
 Internal  Forces:  Max     0.024818173 RMS     0.004490772
 Search for a local minimum.
 Step number   1 out of a maximum of  100
 All quantities printed in internal units (Hartrees-Bohrs-Radians)
 RMS Force = .44908D-02 SwitMx=.10000D-02 MixMth= 1
 Mixed Optimization -- RFO/linear search
 Second derivative matrix not updated -- first step.
 The second derivative matrix:
                          R1        R2        R3        R4        R5
           R1           0.34710
           R2           0.00000   0.46295
           R3           0.00000   0.00000   0.48460
           R4           0.00000   0.00000   0.00000   0.35230
           R5           0.00000   0.00000   0.00000   0.00000   0.46800
           R6           0.00000   0.00000   0.00000   0.00000   0.00000
           R7           0.00000   0.00000   0.00000   0.00000   0.00000
           R8           0.00000   0.00000   0.00000   0.00000   0.00000
           R9           0.00000   0.00000   0.00000   0.00000   0.00000
           R10          0.00000   0.00000   0.00000   0.00000   0.00000
           R11          0.00000   0.00000   0.00000   0.00000   0.00000
           R12          0.00000   0.00000   0.00000   0.00000   0.00000
           R13          0.00000   0.00000   0.00000   0.00000   0.00000
           R14          0.00000   0.00000   0.00000   0.00000   0.00000
           R15          0.00000   0.00000   0.00000   0.00000   0.00000
           R16          0.00000   0.00000   0.00000   0.00000   0.00000
           A1           0.00000   0.00000   0.00000   0.00000   0.00000
           A2           0.00000   0.00000   0.00000   0.00000   0.00000
           A3           0.00000   0.00000   0.00000   0.00000   0.00000
           A4           0.00000   0.00000   0.00000   0.00000   0.00000
           A5           0.00000   0.00000   0.00000   0.00000   0.00000
           A6           0.00000   0.00000   0.00000   0.00000   0.00000
           A7           0.00000   0.00000   0.00000   0.00000   0.00000
           A8           0.00000   0.00000   0.00000   0.00000   0.00000
           A9           0.00000   0.00000   0.00000   0.00000   0.00000
           A10          0.00000   0.00000   0.00000   0.00000   0.00000
           A11          0.00000   0.00000   0.00000   0.00000   0.00000
           A12          0.00000   0.00000   0.00000   0.00000   0.00000
           A13          0.00000   0.00000   0.00000   0.00000   0.00000
           A14          0.00000   0.00000   0.00000   0.00000   0.00000
           A15          0.00000   0.00000   0.00000   0.00000   0.00000
           A16          0.00000   0.00000   0.00000   0.00000   0.00000
           A17          0.00000   0.00000   0.00000   0.00000   0.00000
           A18          0.00000   0.00000   0.00000   0.00000   0.00000
           A19          0.00000   0.00000   0.00000   0.00000   0.00000
           A20          0.00000   0.00000   0.00000   0.00000   0.00000
           A21          0.00000   0.00000   0.00000   0.00000   0.00000
           A22          0.00000   0.00000   0.00000   0.00000   0.00000
           A23          0.00000   0.00000   0.00000   0.00000   0.00000
           A24          0.00000   0.00000   0.00000   0.00000   0.00000
           A25          0.00000   0.00000   0.00000   0.00000   0.00000
           D1           0.00000   0.00000   0.00000   0.00000   0.00000
           D2           0.00000   0.00000   0.00000   0.00000   0.00000
           D3           0.00000   0.00000   0.00000   0.00000   0.00000
           D4           0.00000   0.00000   0.00000   0.00000   0.00000
           D5           0.00000   0.00000   0.00000   0.00000   0.00000
           D6           0.00000   0.00000   0.00000   0.00000   0.00000
           D7           0.00000   0.00000   0.00000   0.00000   0.00000
           D8           0.00000   0.00000   0.00000   0.00000   0.00000
           D9           0.00000   0.00000   0.00000   0.00000   0.00000
           D10          0.00000   0.00000   0.00000   0.00000   0.00000
           D11          0.00000   0.00000   0.00000   0.00000   0.00000
           D12          0.00000   0.00000   0.00000   0.00000   0.00000
           D13          0.00000   0.00000   0.00000   0.00000   0.00000
           D14          0.00000   0.00000   0.00000   0.00000   0.00000
           D15          0.00000   0.00000   0.00000   0.00000   0.00000
           D16          0.00000   0.00000   0.00000   0.00000   0.00000
           D17          0.00000   0.00000   0.00000   0.00000   0.00000
           D18          0.00000   0.00000   0.00000   0.00000   0.00000
           D19          0.00000   0.00000   0.00000   0.00000   0.00000
           D20          0.00000   0.00000   0.00000   0.00000   0.00000
           D21          0.00000   0.00000   0.00000   0.00000   0.00000
           D22          0.00000   0.00000   0.00000   0.00000   0.00000
           D23          0.00000   0.00000   0.00000   0.00000   0.00000
           D24          0.00000   0.00000   0.00000   0.00000   0.00000
           D25          0.00000   0.00000   0.00000   0.00000   0.00000
           D26          0.00000   0.00000   0.00000   0.00000   0.00000
           D27          0.00000   0.00000   0.00000   0.00000   0.00000
           D28          0.00000   0.00000   0.00000   0.00000   0.00000
           D29          0.00000   0.00000   0.00000   0.00000   0.00000
                          R6        R7        R8        R9        R10
           R6           0.45609
           R7           0.00000   0.34902
           R8           0.00000   0.00000   0.47687
           R9           0.00000   0.00000   0.00000   0.34882
           R10          0.00000   0.00000   0.00000   0.00000   0.44403
           R11          0.00000   0.00000   0.00000   0.00000   0.00000
           R12          0.00000   0.00000   0.00000   0.00000   0.00000
           R13          0.00000   0.00000   0.00000   0.00000   0.00000
           R14          0.00000   0.00000   0.00000   0.00000   0.00000
           R15          0.00000   0.00000   0.00000   0.00000   0.00000
           R16          0.00000   0.00000   0.00000   0.00000   0.00000
           A1           0.00000   0.00000   0.00000   0.00000   0.00000
           A2           0.00000   0.00000   0.00000   0.00000   0.00000
           A3           0.00000   0.00000   0.00000   0.00000   0.00000
           A4           0.00000   0.00000   0.00000   0.00000   0.00000
           A5           0.00000   0.00000   0.00000   0.00000   0.00000
           A6           0.00000   0.00000   0.00000   0.00000   0.00000
           A7           0.00000   0.00000   0.00000   0.00000   0.00000
           A8           0.00000   0.00000   0.00000   0.00000   0.00000
           A9           0.00000   0.00000   0.00000   0.00000   0.00000
           A10          0.00000   0.00000   0.00000   0.00000   0.00000
           A11          0.00000   0.00000   0.00000   0.00000   0.00000
           A12          0.00000   0.00000   0.00000   0.00000   0.00000
           A13          0.00000   0.00000   0.00000   0.00000   0.00000
           A14          0.00000   0.00000   0.00000   0.00000   0.00000
           A15          0.00000   0.00000   0.00000   0.00000   0.00000
           A16          0.00000   0.00000   0.00000   0.00000   0.00000
           A17          0.00000   0.00000   0.00000   0.00000   0.00000
           A18          0.00000   0.00000   0.00000   0.00000   0.00000
           A19          0.00000   0.00000   0.00000   0.00000   0.00000
           A20          0.00000   0.00000   0.00000   0.00000   0.00000
           A21          0.00000   0.00000   0.00000   0.00000   0.00000
           A22          0.00000   0.00000   0.00000   0.00000   0.00000
           A23          0.00000   0.00000   0.00000   0.00000   0.00000
           A24          0.00000   0.00000   0.00000   0.00000   0.00000
           A25          0.00000   0.00000   0.00000   0.00000   0.00000
           D1           0.00000   0.00000   0.00000   0.00000   0.00000
           D2           0.00000   0.00000   0.00000   0.00000   0.00000
           D3           0.00000   0.00000   0.00000   0.00000   0.00000
           D4           0.00000   0.00000   0.00000   0.00000   0.00000
           D5           0.00000   0.00000   0.00000   0.00000   0.00000
           D6           0.00000   0.00000   0.00000   0.00000   0.00000
           D7           0.00000   0.00000   0.00000   0.00000   0.00000
           D8           0.00000   0.00000   0.00000   0.00000   0.00000
           D9           0.00000   0.00000   0.00000   0.00000   0.00000
           D10          0.00000   0.00000   0.00000   0.00000   0.00000
           D11          0.00000   0.00000   0.00000   0.00000   0.00000
           D12          0.00000   0.00000   0.00000   0.00000   0.00000
           D13          0.00000   0.00000   0.00000   0.00000   0.00000
           D14          0.00000   0.00000   0.00000   0.00000   0.00000
           D15          0.00000   0.00000   0.00000   0.00000   0.00000
           D16          0.00000   0.00000   0.00000   0.00000   0.00000
           D17          0.00000   0.00000   0.00000   0.00000   0.00000
           D18          0.00000   0.00000   0.00000   0.00000   0.00000
           D19          0.00000   0.00000   0.00000   0.00000   0.00000
           D20          0.00000   0.00000   0.00000   0.00000   0.00000
           D21          0.00000   0.00000   0.00000   0.00000   0.00000
           D22          0.00000   0.00000   0.00000   0.00000   0.00000
           D23          0.00000   0.00000   0.00000   0.00000   0.00000
           D24          0.00000   0.00000   0.00000   0.00000   0.00000
           D25          0.00000   0.00000   0.00000   0.00000   0.00000
           D26          0.00000   0.00000   0.00000   0.00000   0.00000
           D27          0.00000   0.00000   0.00000   0.00000   0.00000
           D28          0.00000   0.00000   0.00000   0.00000   0.00000
           D29          0.00000   0.00000   0.00000   0.00000   0.00000
                          R11       R12       R13       R14       R15
           R11          0.34728
           R12          0.00000   0.45610
           R13          0.00000   0.00000   0.38274
           R14          0.00000   0.00000   0.00000   0.33858
           R15          0.00000   0.00000   0.00000   0.00000   0.33503
           R16          0.00000   0.00000   0.00000   0.00000   0.00000
           A1           0.00000   0.00000   0.00000   0.00000   0.00000
           A2           0.00000   0.00000   0.00000   0.00000   0.00000
           A3           0.00000   0.00000   0.00000   0.00000   0.00000
           A4           0.00000   0.00000   0.00000   0.00000   0.00000
           A5           0.00000   0.00000   0.00000   0.00000   0.00000
           A6           0.00000   0.00000   0.00000   0.00000   0.00000
           A7           0.00000   0.00000   0.00000   0.00000   0.00000
           A8           0.00000   0.00000   0.00000   0.00000   0.00000
           A9           0.00000   0.00000   0.00000   0.00000   0.00000
           A10          0.00000   0.00000   0.00000   0.00000   0.00000
           A11          0.00000   0.00000   0.00000   0.00000   0.00000
           A12          0.00000   0.00000   0.00000   0.00000   0.00000
           A13          0.00000   0.00000   0.00000   0.00000   0.00000
           A14          0.00000   0.00000   0.00000   0.00000   0.00000
           A15          0.00000   0.00000   0.00000   0.00000   0.00000
           A16          0.00000   0.00000   0.00000   0.00000   0.00000
           A17          0.00000   0.00000   0.00000   0.00000   0.00000
           A18          0.00000   0.00000   0.00000   0.00000   0.00000
           A19          0.00000   0.00000   0.00000   0.00000   0.00000
           A20          0.00000   0.00000   0.00000   0.00000   0.00000
           A21          0.00000   0.00000   0.00000   0.00000   0.00000
           A22          0.00000   0.00000   0.00000   0.00000   0.00000
           A23          0.00000   0.00000   0.00000   0.00000   0.00000
           A24          0.00000   0.00000   0.00000   0.00000   0.00000
           A25          0.00000   0.00000   0.00000   0.00000   0.00000
           D1           0.00000   0.00000   0.00000   0.00000   0.00000
           D2           0.00000   0.00000   0.00000   0.00000   0.00000
           D3           0.00000   0.00000   0.00000   0.00000   0.00000
           D4           0.00000   0.00000   0.00000   0.00000   0.00000
           D5           0.00000   0.00000   0.00000   0.00000   0.00000
           D6           0.00000   0.00000   0.00000   0.00000   0.00000
           D7           0.00000   0.00000   0.00000   0.00000   0.00000
           D8           0.00000   0.00000   0.00000   0.00000   0.00000
           D9           0.00000   0.00000   0.00000   0.00000   0.00000
           D10          0.00000   0.00000   0.00000   0.00000   0.00000
           D11          0.00000   0.00000   0.00000   0.00000   0.00000
           D12          0.00000   0.00000   0.00000   0.00000   0.00000
           D13          0.00000   0.00000   0.00000   0.00000   0.00000
           D14          0.00000   0.00000   0.00000   0.00000   0.00000
           D15          0.00000   0.00000   0.00000   0.00000   0.00000
           D16          0.00000   0.00000   0.00000   0.00000   0.00000
           D17          0.00000   0.00000   0.00000   0.00000   0.00000
           D18          0.00000   0.00000   0.00000   0.00000   0.00000
           D19          0.00000   0.00000   0.00000   0.00000   0.00000
           D20          0.00000   0.00000   0.00000   0.00000   0.00000
           D21          0.00000   0.00000   0.00000   0.00000   0.00000
           D22          0.00000   0.00000   0.00000   0.00000   0.00000
           D23          0.00000   0.00000   0.00000   0.00000   0.00000
           D24          0.00000   0.00000   0.00000   0.00000   0.00000
           D25          0.00000   0.00000   0.00000   0.00000   0.00000
           D26          0.00000   0.00000   0.00000   0.00000   0.00000
           D27          0.00000   0.00000   0.00000   0.00000   0.00000
           D28          0.00000   0.00000   0.00000   0.00000   0.00000
           D29          0.00000   0.00000   0.00000   0.00000   0.00000
                          R16       A1        A2        A3        A4
           R16          0.33503
           A1           0.00000   0.16000
           A2           0.00000   0.00000   0.16000
           A3           0.00000   0.00000   0.00000   0.25000
           A4           0.00000   0.00000   0.00000   0.00000   0.16000
           A5           0.00000   0.00000   0.00000   0.00000   0.00000
           A6           0.00000   0.00000   0.00000   0.00000   0.00000
           A7           0.00000   0.00000   0.00000   0.00000   0.00000
           A8           0.00000   0.00000   0.00000   0.00000   0.00000
           A9           0.00000   0.00000   0.00000   0.00000   0.00000
           A10          0.00000   0.00000   0.00000   0.00000   0.00000
           A11          0.00000   0.00000   0.00000   0.00000   0.00000
           A12          0.00000   0.00000   0.00000   0.00000   0.00000
           A13          0.00000   0.00000   0.00000   0.00000   0.00000
           A14          0.00000   0.00000   0.00000   0.00000   0.00000
           A15          0.00000   0.00000   0.00000   0.00000   0.00000
           A16          0.00000   0.00000   0.00000   0.00000   0.00000
           A17          0.00000   0.00000   0.00000   0.00000   0.00000
           A18          0.00000   0.00000   0.00000   0.00000   0.00000
           A19          0.00000   0.00000   0.00000   0.00000   0.00000
           A20          0.00000   0.00000   0.00000   0.00000   0.00000
           A21          0.00000   0.00000   0.00000   0.00000   0.00000
           A22          0.00000   0.00000   0.00000   0.00000   0.00000
           A23          0.00000   0.00000   0.00000   0.00000   0.00000
           A24          0.00000   0.00000   0.00000   0.00000   0.00000
           A25          0.00000   0.00000   0.00000   0.00000   0.00000
           D1           0.00000   0.00000   0.00000   0.00000   0.00000
           D2           0.00000   0.00000   0.00000   0.00000   0.00000
           D3           0.00000   0.00000   0.00000   0.00000   0.00000
           D4           0.00000   0.00000   0.00000   0.00000   0.00000
           D5           0.00000   0.00000   0.00000   0.00000   0.00000
           D6           0.00000   0.00000   0.00000   0.00000   0.00000
           D7           0.00000   0.00000   0.00000   0.00000   0.00000
           D8           0.00000   0.00000   0.00000   0.00000   0.00000
           D9           0.00000   0.00000   0.00000   0.00000   0.00000
           D10          0.00000   0.00000   0.00000   0.00000   0.00000
           D11          0.00000   0.00000   0.00000   0.00000   0.00000
           D12          0.00000   0.00000   0.00000   0.00000   0.00000
           D13          0.00000   0.00000   0.00000   0.00000   0.00000
           D14          0.00000   0.00000   0.00000   0.00000   0.00000
           D15          0.00000   0.00000   0.00000   0.00000   0.00000
           D16          0.00000   0.00000   0.00000   0.00000   0.00000
           D17          0.00000   0.00000   0.00000   0.00000   0.00000
           D18          0.00000   0.00000   0.00000   0.00000   0.00000
           D19          0.00000   0.00000   0.00000   0.00000   0.00000
           D20          0.00000   0.00000   0.00000   0.00000   0.00000
           D21          0.00000   0.00000   0.00000   0.00000   0.00000
           D22          0.00000   0.00000   0.00000   0.00000   0.00000
           D23          0.00000   0.00000   0.00000   0.00000   0.00000
           D24          0.00000   0.00000   0.00000   0.00000   0.00000
           D25          0.00000   0.00000   0.00000   0.00000   0.00000
           D26          0.00000   0.00000   0.00000   0.00000   0.00000
           D27          0.00000   0.00000   0.00000   0.00000   0.00000
           D28          0.00000   0.00000   0.00000   0.00000   0.00000
           D29          0.00000   0.00000   0.00000   0.00000   0.00000
                          A5        A6        A7        A8        A9
           A5           0.16000
           A6           0.00000   0.25000
           A7           0.00000   0.00000   0.16000
           A8           0.00000   0.00000   0.00000   0.25000
           A9           0.00000   0.00000   0.00000   0.00000   0.16000
           A10          0.00000   0.00000   0.00000   0.00000   0.00000
           A11          0.00000   0.00000   0.00000   0.00000   0.00000
           A12          0.00000   0.00000   0.00000   0.00000   0.00000
           A13          0.00000   0.00000   0.00000   0.00000   0.00000
           A14          0.00000   0.00000   0.00000   0.00000   0.00000
           A15          0.00000   0.00000   0.00000   0.00000   0.00000
           A16          0.00000   0.00000   0.00000   0.00000   0.00000
           A17          0.00000   0.00000   0.00000   0.00000   0.00000
           A18          0.00000   0.00000   0.00000   0.00000   0.00000
           A19          0.00000   0.00000   0.00000   0.00000   0.00000
           A20          0.00000   0.00000   0.00000   0.00000   0.00000
           A21          0.00000   0.00000   0.00000   0.00000   0.00000
           A22          0.00000   0.00000   0.00000   0.00000   0.00000
           A23          0.00000   0.00000   0.00000   0.00000   0.00000
           A24          0.00000   0.00000   0.00000   0.00000   0.00000
           A25          0.00000   0.00000   0.00000   0.00000   0.00000
           D1           0.00000   0.00000   0.00000   0.00000   0.00000
           D2           0.00000   0.00000   0.00000   0.00000   0.00000
           D3           0.00000   0.00000   0.00000   0.00000   0.00000
           D4           0.00000   0.00000   0.00000   0.00000   0.00000
           D5           0.00000   0.00000   0.00000   0.00000   0.00000
           D6           0.00000   0.00000   0.00000   0.00000   0.00000
           D7           0.00000   0.00000   0.00000   0.00000   0.00000
           D8           0.00000   0.00000   0.00000   0.00000   0.00000
           D9           0.00000   0.00000   0.00000   0.00000   0.00000
           D10          0.00000   0.00000   0.00000   0.00000   0.00000
           D11          0.00000   0.00000   0.00000   0.00000   0.00000
           D12          0.00000   0.00000   0.00000   0.00000   0.00000
           D13          0.00000   0.00000   0.00000   0.00000   0.00000
           D14          0.00000   0.00000   0.00000   0.00000   0.00000
           D15          0.00000   0.00000   0.00000   0.00000   0.00000
           D16          0.00000   0.00000   0.00000   0.00000   0.00000
           D17          0.00000   0.00000   0.00000   0.00000   0.00000
           D18          0.00000   0.00000   0.00000   0.00000   0.00000
           D19          0.00000   0.00000   0.00000   0.00000   0.00000
           D20          0.00000   0.00000   0.00000   0.00000   0.00000
           D21          0.00000   0.00000   0.00000   0.00000   0.00000
           D22          0.00000   0.00000   0.00000   0.00000   0.00000
           D23          0.00000   0.00000   0.00000   0.00000   0.00000
           D24          0.00000   0.00000   0.00000   0.00000   0.00000
           D25          0.00000   0.00000   0.00000   0.00000   0.00000
           D26          0.00000   0.00000   0.00000   0.00000   0.00000
           D27          0.00000   0.00000   0.00000   0.00000   0.00000
           D28          0.00000   0.00000   0.00000   0.00000   0.00000
           D29          0.00000   0.00000   0.00000   0.00000   0.00000
                          A10       A11       A12       A13       A14
           A10          0.16000
           A11          0.00000   0.25000
           A12          0.00000   0.00000   0.16000
           A13          0.00000   0.00000   0.00000   0.25000
           A14          0.00000   0.00000   0.00000   0.00000   0.16000
           A15          0.00000   0.00000   0.00000   0.00000   0.00000
           A16          0.00000   0.00000   0.00000   0.00000   0.00000
           A17          0.00000   0.00000   0.00000   0.00000   0.00000
           A18          0.00000   0.00000   0.00000   0.00000   0.00000
           A19          0.00000   0.00000   0.00000   0.00000   0.00000
           A20          0.00000   0.00000   0.00000   0.00000   0.00000
           A21          0.00000   0.00000   0.00000   0.00000   0.00000
           A22          0.00000   0.00000   0.00000   0.00000   0.00000
           A23          0.00000   0.00000   0.00000   0.00000   0.00000
           A24          0.00000   0.00000   0.00000   0.00000   0.00000
           A25          0.00000   0.00000   0.00000   0.00000   0.00000
           D1           0.00000   0.00000   0.00000   0.00000   0.00000
           D2           0.00000   0.00000   0.00000   0.00000   0.00000
           D3           0.00000   0.00000   0.00000   0.00000   0.00000
           D4           0.00000   0.00000   0.00000   0.00000   0.00000
           D5           0.00000   0.00000   0.00000   0.00000   0.00000
           D6           0.00000   0.00000   0.00000   0.00000   0.00000
           D7           0.00000   0.00000   0.00000   0.00000   0.00000
           D8           0.00000   0.00000   0.00000   0.00000   0.00000
           D9           0.00000   0.00000   0.00000   0.00000   0.00000
           D10          0.00000   0.00000   0.00000   0.00000   0.00000
           D11          0.00000   0.00000   0.00000   0.00000   0.00000
           D12          0.00000   0.00000   0.00000   0.00000   0.00000
           D13          0.00000   0.00000   0.00000   0.00000   0.00000
           D14          0.00000   0.00000   0.00000   0.00000   0.00000
           D15          0.00000   0.00000   0.00000   0.00000   0.00000
           D16          0.00000   0.00000   0.00000   0.00000   0.00000
           D17          0.00000   0.00000   0.00000   0.00000   0.00000
           D18          0.00000   0.00000   0.00000   0.00000   0.00000
           D19          0.00000   0.00000   0.00000   0.00000   0.00000
           D20          0.00000   0.00000   0.00000   0.00000   0.00000
           D21          0.00000   0.00000   0.00000   0.00000   0.00000
           D22          0.00000   0.00000   0.00000   0.00000   0.00000
           D23          0.00000   0.00000   0.00000   0.00000   0.00000
           D24          0.00000   0.00000   0.00000   0.00000   0.00000
           D25          0.00000   0.00000   0.00000   0.00000   0.00000
           D26          0.00000   0.00000   0.00000   0.00000   0.00000
           D27          0.00000   0.00000   0.00000   0.00000   0.00000
           D28          0.00000   0.00000   0.00000   0.00000   0.00000
           D29          0.00000   0.00000   0.00000   0.00000   0.00000
                          A15       A16       A17       A18       A19
           A15          0.16000
           A16          0.00000   0.25000
           A17          0.00000   0.00000   0.25000
           A18          0.00000   0.00000   0.00000   0.25000
           A19          0.00000   0.00000   0.00000   0.00000   0.25000
           A20          0.00000   0.00000   0.00000   0.00000   0.00000
           A21          0.00000   0.00000   0.00000   0.00000   0.00000
           A22          0.00000   0.00000   0.00000   0.00000   0.00000
           A23          0.00000   0.00000   0.00000   0.00000   0.00000
           A24          0.00000   0.00000   0.00000   0.00000   0.00000
           A25          0.00000   0.00000   0.00000   0.00000   0.00000
           D1           0.00000   0.00000   0.00000   0.00000   0.00000
           D2           0.00000   0.00000   0.00000   0.00000   0.00000
           D3           0.00000   0.00000   0.00000   0.00000   0.00000
           D4           0.00000   0.00000   0.00000   0.00000   0.00000
           D5           0.00000   0.00000   0.00000   0.00000   0.00000
           D6           0.00000   0.00000   0.00000   0.00000   0.00000
           D7           0.00000   0.00000   0.00000   0.00000   0.00000
           D8           0.00000   0.00000   0.00000   0.00000   0.00000
           D9           0.00000   0.00000   0.00000   0.00000   0.00000
           D10          0.00000   0.00000   0.00000   0.00000   0.00000
           D11          0.00000   0.00000   0.00000   0.00000   0.00000
           D12          0.00000   0.00000   0.00000   0.00000   0.00000
           D13          0.00000   0.00000   0.00000   0.00000   0.00000
           D14          0.00000   0.00000   0.00000   0.00000   0.00000
           D15          0.00000   0.00000   0.00000   0.00000   0.00000
           D16          0.00000   0.00000   0.00000   0.00000   0.00000
           D17          0.00000   0.00000   0.00000   0.00000   0.00000
           D18          0.00000   0.00000   0.00000   0.00000   0.00000
           D19          0.00000   0.00000   0.00000   0.00000   0.00000
           D20          0.00000   0.00000   0.00000   0.00000   0.00000
           D21          0.00000   0.00000   0.00000   0.00000   0.00000
           D22          0.00000   0.00000   0.00000   0.00000   0.00000
           D23          0.00000   0.00000   0.00000   0.00000   0.00000
           D24          0.00000   0.00000   0.00000   0.00000   0.00000
           D25          0.00000   0.00000   0.00000   0.00000   0.00000
           D26          0.00000   0.00000   0.00000   0.00000   0.00000
           D27          0.00000   0.00000   0.00000   0.00000   0.00000
           D28          0.00000   0.00000   0.00000   0.00000   0.00000
           D29          0.00000   0.00000   0.00000   0.00000   0.00000
                          A20       A21       A22       A23       A24
           A20          0.16000
           A21          0.00000   0.16000
           A22          0.00000   0.00000   0.16000
           A23          0.00000   0.00000   0.00000   0.16000
           A24          0.00000   0.00000   0.00000   0.00000   0.16000
           A25          0.00000   0.00000   0.00000   0.00000   0.00000
           D1           0.00000   0.00000   0.00000   0.00000   0.00000
           D2           0.00000   0.00000   0.00000   0.00000   0.00000
           D3           0.00000   0.00000   0.00000   0.00000   0.00000
           D4           0.00000   0.00000   0.00000   0.00000   0.00000
           D5           0.00000   0.00000   0.00000   0.00000   0.00000
           D6           0.00000   0.00000   0.00000   0.00000   0.00000
           D7           0.00000   0.00000   0.00000   0.00000   0.00000
           D8           0.00000   0.00000   0.00000   0.00000   0.00000
           D9           0.00000   0.00000   0.00000   0.00000   0.00000
           D10          0.00000   0.00000   0.00000   0.00000   0.00000
           D11          0.00000   0.00000   0.00000   0.00000   0.00000
           D12          0.00000   0.00000   0.00000   0.00000   0.00000
           D13          0.00000   0.00000   0.00000   0.00000   0.00000
           D14          0.00000   0.00000   0.00000   0.00000   0.00000
           D15          0.00000   0.00000   0.00000   0.00000   0.00000
           D16          0.00000   0.00000   0.00000   0.00000   0.00000
           D17          0.00000   0.00000   0.00000   0.00000   0.00000
           D18          0.00000   0.00000   0.00000   0.00000   0.00000
           D19          0.00000   0.00000   0.00000   0.00000   0.00000
           D20          0.00000   0.00000   0.00000   0.00000   0.00000
           D21          0.00000   0.00000   0.00000   0.00000   0.00000
           D22          0.00000   0.00000   0.00000   0.00000   0.00000
           D23          0.00000   0.00000   0.00000   0.00000   0.00000
           D24          0.00000   0.00000   0.00000   0.00000   0.00000
           D25          0.00000   0.00000   0.00000   0.00000   0.00000
           D26          0.00000   0.00000   0.00000   0.00000   0.00000
           D27          0.00000   0.00000   0.00000   0.00000   0.00000
           D28          0.00000   0.00000   0.00000   0.00000   0.00000
           D29          0.00000   0.00000   0.00000   0.00000   0.00000
                          A25       D1        D2        D3        D4
           A25          0.16000
           D1           0.00000   0.02142
           D2           0.00000   0.00000   0.02142
           D3           0.00000   0.00000   0.00000   0.02142
           D4           0.00000   0.00000   0.00000   0.00000   0.02142
           D5           0.00000   0.00000   0.00000   0.00000   0.00000
           D6           0.00000   0.00000   0.00000   0.00000   0.00000
           D7           0.00000   0.00000   0.00000   0.00000   0.00000
           D8           0.00000   0.00000   0.00000   0.00000   0.00000
           D9           0.00000   0.00000   0.00000   0.00000   0.00000
           D10          0.00000   0.00000   0.00000   0.00000   0.00000
           D11          0.00000   0.00000   0.00000   0.00000   0.00000
           D12          0.00000   0.00000   0.00000   0.00000   0.00000
           D13          0.00000   0.00000   0.00000   0.00000   0.00000
           D14          0.00000   0.00000   0.00000   0.00000   0.00000
           D15          0.00000   0.00000   0.00000   0.00000   0.00000
           D16          0.00000   0.00000   0.00000   0.00000   0.00000
           D17          0.00000   0.00000   0.00000   0.00000   0.00000
           D18          0.00000   0.00000   0.00000   0.00000   0.00000
           D19          0.00000   0.00000   0.00000   0.00000   0.00000
           D20          0.00000   0.00000   0.00000   0.00000   0.00000
           D21          0.00000   0.00000   0.00000   0.00000   0.00000
           D22          0.00000   0.00000   0.00000   0.00000   0.00000
           D23          0.00000   0.00000   0.00000   0.00000   0.00000
           D24          0.00000   0.00000   0.00000   0.00000   0.00000
           D25          0.00000   0.00000   0.00000   0.00000   0.00000
           D26          0.00000   0.00000   0.00000   0.00000   0.00000
           D27          0.00000   0.00000   0.00000   0.00000   0.00000
           D28          0.00000   0.00000   0.00000   0.00000   0.00000
           D29          0.00000   0.00000   0.00000   0.00000   0.00000
                          D5        D6        D7        D8        D9
           D5           0.02306
           D6           0.00000   0.02306
           D7           0.00000   0.00000   0.02306
           D8           0.00000   0.00000   0.00000   0.02306
           D9           0.00000   0.00000   0.00000   0.00000   0.02181
           D10          0.00000   0.00000   0.00000   0.00000   0.00000
           D11          0.00000   0.00000   0.00000   0.00000   0.00000
           D12          0.00000   0.00000   0.00000   0.00000   0.00000
           D13          0.00000   0.00000   0.00000   0.00000   0.00000
           D14          0.00000   0.00000   0.00000   0.00000   0.00000
           D15          0.00000   0.00000   0.00000   0.00000   0.00000
           D16          0.00000   0.00000   0.00000   0.00000   0.00000
           D17          0.00000   0.00000   0.00000   0.00000   0.00000
           D18          0.00000   0.00000   0.00000   0.00000   0.00000
           D19          0.00000   0.00000   0.00000   0.00000   0.00000
           D20          0.00000   0.00000   0.00000   0.00000   0.00000
           D21          0.00000   0.00000   0.00000   0.00000   0.00000
           D22          0.00000   0.00000   0.00000   0.00000   0.00000
           D23          0.00000   0.00000   0.00000   0.00000   0.00000
           D24          0.00000   0.00000   0.00000   0.00000   0.00000
           D25          0.00000   0.00000   0.00000   0.00000   0.00000
           D26          0.00000   0.00000   0.00000   0.00000   0.00000
           D27          0.00000   0.00000   0.00000   0.00000   0.00000
           D28          0.00000   0.00000   0.00000   0.00000   0.00000
           D29          0.00000   0.00000   0.00000   0.00000   0.00000
                          D10       D11       D12       D13       D14
           D10          0.02181
           D11          0.00000   0.02181
           D12          0.00000   0.00000   0.02181
           D13          0.00000   0.00000   0.00000   0.02088
           D14          0.00000   0.00000   0.00000   0.00000   0.02088
           D15          0.00000   0.00000   0.00000   0.00000   0.00000
           D16          0.00000   0.00000   0.00000   0.00000   0.00000
           D17          0.00000   0.00000   0.00000   0.00000   0.00000
           D18          0.00000   0.00000   0.00000   0.00000   0.00000
[...]
 ! A25   A(15,13,16)           109.4047         -DE/DX =    0.0                 !
 ! D1    D(2,1,5,6)              0.0            -DE/DX =    0.0                 !
 ! D2    D(2,1,5,9)           -180.0            -DE/DX =    0.0                 !
 ! D3    D(7,1,5,6)            180.0            -DE/DX =    0.0                 !
 ! D4    D(7,1,5,9)              0.0            -DE/DX =    0.0                 !
 ! D5    D(2,1,7,8)             -0.0001         -DE/DX =    0.0                 !
 ! D6    D(2,1,7,11)           179.9999         -DE/DX =    0.0                 !
 ! D7    D(5,1,7,8)            180.0            -DE/DX =    0.0                 !
 ! D8    D(5,1,7,11)            -0.0001         -DE/DX =    0.0                 !
 ! D9    D(4,3,9,5)           -180.0            -DE/DX =    0.0                 !
 ! D10   D(4,3,9,10)             0.0            -DE/DX =    0.0                 !
 ! D11   D(11,3,9,5)             0.0            -DE/DX =    0.0                 !
 ! D12   D(11,3,9,10)         -180.0            -DE/DX =    0.0                 !
 ! D13   D(4,3,11,7)           180.0            -DE/DX =    0.0                 !
 ! D14   D(4,3,11,12)           -0.0002         -DE/DX =    0.0                 !
 ! D15   D(9,3,11,7)             0.0            -DE/DX =    0.0                 !
 ! D16   D(9,3,11,12)          179.9998         -DE/DX =    0.0                 !
 ! D17   D(1,5,9,3)              0.0            -DE/DX =    0.0                 !
 ! D18   D(1,5,9,10)          -180.0            -DE/DX =    0.0                 !
 ! D19   D(6,5,9,3)           -180.0            -DE/DX =    0.0                 !
 ! D20   D(6,5,9,10)             0.0            -DE/DX =    0.0                 !
 ! D21   D(1,7,11,3)             0.0001         -DE/DX =    0.0                 !
 ! D22   D(1,7,11,12)         -179.9998         -DE/DX =    0.0                 !
 ! D23   D(8,7,11,3)          -180.0            -DE/DX =    0.0                 !
 ! D24   D(8,7,11,12)            0.0002         -DE/DX =    0.0                 !
 ! D25   D(3,11,12,13)           0.0015         -DE/DX =    0.0                 !
 ! D26   D(7,11,12,13)         180.0014         -DE/DX =    0.0                 !
 ! D27   D(11,12,13,14)       -180.001          -DE/DX =    0.0                 !
 ! D28   D(11,12,13,15)        -61.2799         -DE/DX =    0.0                 !
 ! D29   D(11,12,13,16)         61.2777         -DE/DX =    0.0                 !
 --------------------------------------------------------------------------------
 GradGradGradGradGradGradGradGradGradGradGradGradGradGradGradGradGradGrad

 Leave Link  103 at Thu Sep 10 00:41:23 2015, MaxMem=  134217728 cpu:       0.0
 (Enter /apps/Gausian/g09/l9999.exe)

 Test job not archived.
 1\1\GINC-NODE1-013\Freq\RB3LYP\6-311+G(d,p)\C7H8O1\TM162\10-Sep-2015\0
 \\#P Geom=AllCheck Guess=TCheck SCRF=Check Test GenChk RB3LYP/6-311+G(
 d,p) Freq\\anisol\\0,1\C,1.3975594148,-0.0050214738,-0.0001164752\H,2.
 4814668217,-0.0381329592,-0.0002577249\C,-1.3917149211,0.0589927503,0.
 0002485145\H,-2.4725119627,0.103201599,0.0003906102\C,0.7349673962,1.2
 258442234,-0.0000084672\H,1.2977528943,2.1516928704,-0.0000654665\C,0.
 6804641152,-1.1931528886,-0.0000443967\H,1.1798646716,-2.1546316348,-0
 .0001271425\C,-0.6549604887,1.2466850374,0.0001730093\H,-1.1839086521,
 2.1934443495,0.0002588607\C,-0.7200133092,-1.1663652811,0.0001393437\O
 ,-1.3354477582,-2.3857822691,0.0002017603\C,-2.7553220154,-2.431703193
 3,0.0003573029\H,-3.0186527512,-3.4882238986,0.0003627154\H,-3.1717034
 487,-1.9549615353,0.8945871027\H,-3.1719010065,-1.9549206962,-0.893758
 5467\\Version=EM64L-G09RevC.01\HF=-346.8675413\RMSD=2.317e-09\RMSF=5.3
 21e-06\ZeroPoint=0.1323994\Thermal=0.139322\Dipole=-0.5423078,0.089311
 5,0.0000593\DipoleDeriv=0.1297283,0.0198791,-0.0000353,-0.0429554,0.18
 49323,0.0000113,-0.000034,0.0000032,-0.1381778,-0.1115789,0.0017766,0.
 0000322,0.0034975,0.0705231,-0.0000017,0.0000312,-0.0000013,0.1367607,
 -0.0375451,0.0973595,-0.0000165,-0.269884,-0.3308582,0.0000319,-0.0000
 197,-0.0000139,-0.1711458,-0.0813511,-0.0160543,0.0000299,0.0039396,0.
 0879613,-0.0000013,0.0000294,0.0000019,0.1485569,-0.1893376,0.0951597,
 0.0000051,0.0537418,-0.0851718,-0.000006,0.000004,-0.000012,-0.1671397
 ,0.0178875,-0.0785812,0.0000158,-0.0787572,-0.0635693,0.0000064,0.0000
 158,0.0000066,0.1512507,-0.2103069,-0.3269126,-0.0000004,-0.0706378,-0
 .0969644,0.0000097,0.0000026,0.0000424,-0.1666924,0.0549707,0.0522187,
 0.0000131,0.055717,-0.0376522,-0.0000106,0.0000135,-0.0000104,0.149221
 8,0.1871201,-0.0393556,-0.0000435,0.0858657,0.1249314,-0.0000062,-0.00
 00415,0.0000108,-0.144219,0.0247632,0.078353,0.0000158,0.0650371,-0.07
 2386,-0.0000123,0.0000154,-0.0000142,0.1368157,0.5358739,0.6068859,-0.
 0000482,0.8514007,1.187856,-0.0000901,-0.0000482,-0.000066,0.0937796,-
 1.1588251,-0.6859962,0.0000963,-0.7725064,-1.2149873,0.0000822,0.00009
 65,0.000078,-0.2796863,0.9340533,0.3387095,-0.0000651,0.0334458,0.2773
 948,-0.0000043,-0.0000686,-0.0000409,0.3398294,0.0268586,-0.0396534,0.
 0000074,-0.1018806,-0.1165158,0.000007,0.000006,-0.0000005,0.0951725,-
 0.0611441,-0.0519004,0.0231495,0.0919756,0.0422559,-0.0940924,0.086048
 6,-0.0510644,-0.092179,-0.0611667,-0.0518883,-0.0231563,0.0920004,0.04
 22501,0.0940765,-0.0860511,0.0510807,-0.0921473\Polar=100.9433894,10.9
 66006,100.2092389,-0.0058799,-0.0005191,53.6511443\PG=C01 [X(C7H8O1)]\
 NImag=0\\0.73422768,0.00549513,0.66055232,-0.00007782,0.00000864,0.134
 72490,-0.33427526,0.00834297,0.00003859,0.35494168,0.00879431,-0.05935
 610,-0.00000154,-0.00887053,0.05849914,0.00003860,-0.00000149,-0.03740
 726,-0.00004280,0.00000172,0.02582794,-0.00176221,-0.00447033,-0.00000
 029,0.00067995,-0.00032001,-0.00000023,0.73510557,0.00178173,-0.063886
 46,-0.00000133,-0.00016632,-0.00111389,0.00000001,0.00470185,0.6521401
 9,-0.00000019,-0.00000056,-0.00293511,-0.00000022,0.00000003,-0.000948
 44,-0.00008040,0.00000867,0.11921899,0.00069724,0.00010887,-0.00000020
 ,-0.00008253,0.00000228,-0.00000010,-0.33814033,0.01510362,0.00004034,
 0.36131138,-0.00014726,-0.00141446,0.,0.00000178,0.00009767,0.00000002
 ,0.01395133,-0.05856502,-0.00000240,-0.01100035,0.05888738,-0.00000020
 ,-0.00000002,-0.00081028,-0.00000010,0.00000002,-0.00083211,0.00004037
 ,-0.00000246,-0.03138323,-0.00004455,0.00000223,0.02275766,-0.17029932
 ,0.05066135,0.00001526,-0.01060920,0.02833689,0.00000234,-0.03068145,-
 0.07295281,0.00000352,0.00091805,-0.00245420,0.00000071,0.68110340,0.1
 1275788,-0.27809662,-0.00001860,-0.00253291,0.00436486,0.00000035,-0.0
 2661170,0.03146351,0.00000396,-0.00320354,-0.00419113,0.00000023,0.042
 83771,0.71060108,0.00001627,-0.00001037,-0.06102477,0.00000178,-0.0000
 0367,0.00342691,0.00000441,0.00000996,0.00676301,0.00000071,0.00000013
 ,0.00675988,-0.00007132,0.00000472,0.12537588,0.01145001,0.01451115,-0
 .00000100,0.00076446,-0.00060629,-0.00000060,-0.00512901,0.00150601,0.
 00000158,-0.00066290,-0.00130708,0.00000013,-0.13335090,-0.12333068,0.
 00001094,0.13836458,-0.01677282,-0.01839088,0.00000183,0.00030123,0.00
 092119,0.00000005,0.00064113,0.00166432,-0.00000018,0.00019123,0.00006
 306,-0.00000004,-0.12349563,-0.26156010,0.00001210,0.13287392,0.276188
 76,-0.00000155,-0.00000226,0.00174171,-0.00000057,0.00000016,-0.003700
 14,0.00000158,-0.00000027,0.00681388,0.00000016,0.00000016,0.00054256,
 0.00001097,0.00001210,-0.03288678,-0.00001256,-0.00001291,0.02424600,-
 0.18772038,-0.06754845,0.00001583,-0.01257317,-0.02814034,0.00000161,-
 0.01787494,0.06731682,0.00000451,0.00056733,0.00205213,0.00000066,0.06
 098077,-0.02631540,-0.00000759,-0.00072063,0.00393404,0.00000099,0.666
 72351,-0.12861693,-0.29107497,0.00001258,0.00275330,0.00459084,-0.0000
 0033,0.02846776,0.02797645,-0.00000326,0.00299605,-0.00494438,-0.00000
 058,0.01795575,-0.05743601,-0.00000351,0.00300604,-0.00292762,-0.00000
 056,-0.01114555,0.74857577,0.00001479,0.00000466,-0.05722747,0.0000021
 4,0.00000370,0.00346469,0.00000385,-0.00000842,0.00702083,0.00000070,-
 0.00000044,0.00553477,-0.00000670,0.00000220,0.00683245,0.00000098,-0.
 00000068,0.00635469,-0.00007074,0.00001259,0.12406805,0.01210941,-0.01
 584141,-0.00000155,0.00087009,0.00052038,-0.00000069,-0.00576664,-0.00
 111049,0.00000140,-0.00061504,0.00145753,0.00000010,-0.00102647,-0.003
 30575,0.00000105,0.00039834,-0.00082665,-0.00000001,-0.12001680,0.1153
 2672,0.00001333,0.12167043,0.01431629,-0.01768612,-0.00000223,-0.00022
 206,0.00094910,0.00000013,-0.00001399,0.00122174,-0.00000006,-0.000240
 54,0.00003183,0.00000004,-0.00406203,-0.00216106,0.00000036,0.00070542
 ,-0.00090863,-0.00000012,0.11718799,-0.27562189,-0.00001967,-0.1252420
 4,0.29233834,-0.00000100,0.00000173,0.00243546,-0.00000069,0.00000002,
 -0.00445285,0.00000141,0.00000008,0.00508249,0.00000008,-0.00000019,-0
 .00002348,0.00000104,0.00000025,0.00742345,0.00000001,0.00000008,0.000
 41385,0.00001335,-0.00001941,-0.03399985,-0.00001509,0.00002119,0.0238
 0022,-0.02724938,0.07816600,0.00000576,0.00064224,0.00245678,0.0000008
 2,-0.18008867,-0.05986631,0.00001524,-0.01260339,-0.02812128,0.0000014
 0,-0.33847175,-0.02797507,0.00003532,-0.01135321,0.00278136,0.00000173
 ,-0.05103925,-0.02711314,0.00000579,-0.00087770,-0.00063721,-0.0000000
 4,0.68428969,0.03052103,0.02811006,-0.00000352,0.00328828,-0.00474105,
 -0.00000063,-0.12172628,-0.26989979,0.00001217,0.00272177,0.00526162,-
 0.00000029,0.03390692,-0.12643605,-0.00000559,-0.02865290,0.00413347,0
 .00000376,-0.02383495,-0.01487015,0.00000290,-0.00102357,0.00032682,0.
 00000015,-0.03514368,0.70529495,0.00000494,-0.00000983,0.00628327,0.00
 000083,-0.00000052,0.00654777,0.00001401,0.00000398,-0.05627759,0.0000
 0193,0.00000377,0.00177101,0.00003628,0.00000261,-0.06071588,0.0000012
 4,-0.00000032,0.00191866,0.00000595,0.00000336,-0.00246127,-0.00000004
 ,0.00000011,-0.00102514,-0.00007210,0.00001461,0.13258244,-0.00593700,
 -0.00095490,0.00000167,-0.00066236,0.00143789,0.00000012,0.01081353,-0
 .01590434,-0.00000129,0.00095867,0.00041932,-0.00000065,-0.00954848,0.
 02922004,0.00000223,0.00100595,-0.00045894,-0.00000068,-0.00060320,-0.
 00092909,-0.00000008,0.00006394,0.00008099,-0.00000011,-0.12450703,0.1
 1743216,0.00001360,0.12900431,-0.00007835,0.00178856,-0.00000008,-0.00
 014741,-0.00000285,0.00000002,0.01459122,-0.01916557,-0.00000232,-0.00
 019166,0.00100638,0.00000011,-0.00184349,0.00299691,0.00000023,0.00040
 480,0.00070963,0.00000004,-0.00075598,0.00023783,0.00000012,0.00006258
 ,-0.00004410,0.,0.11726489,-0.26853288,-0.00001944,-0.12614421,0.28436
 609,0.00000170,0.00000002,0.00702675,0.00000010,-0.00000019,0.00011718
 ,-0.00000074,0.00000170,0.00315787,-0.00000065,0.00000002,-0.00402681,
 0.00000164,-0.00000382,0.00365222,-0.00000066,0.00000015,-0.00412913,-
 0.00000009,0.00000014,-0.00112596,-0.00000011,0.,-0.00075469,0.0000136
 0,-0.00001945,-0.03624354,-0.00001576,0.00002108,0.02517976,-0.0260135
 8,-0.08071869,0.00000207,0.00146289,-0.00181302,0.00000081,-0.18837018
 ,0.04744195,0.00001703,-0.01185901,0.02791361,0.00000244,-0.05443752,0
 .03433109,0.00000718,-0.00104055,0.00111770,0.00000010,-0.30163893,0.0
 5768357,0.00003109,-0.00959559,-0.00165095,0.00000184,0.07122190,0.022
 52319,-0.00000882,-0.00113114,-0.00403671,0.00000101,0.68441636,-0.030
 53631,0.03573415,0.00000463,-0.00237136,-0.00397237,0.00000011,0.11349
 206,-0.25041433,-0.00001815,-0.00228007,0.00596896,0.00000028,0.033456
 94,-0.01451195,-0.00000458,0.00106316,0.00009560,-0.00000013,-0.008695
 65,-0.12093392,0.00000025,0.03014128,0.00054584,-0.00000397,-0.0268166
 6,-0.05956176,0.00000242,-0.00325491,-0.00173774,0.00000026,-0.0200893
 0,0.65649069,0.00000304,0.00001121,0.00120209,0.00000081,0.00000003,0.
 00799762,0.00001804,-0.00000918,-0.06435779,0.00000202,-0.00000366,0.0
 0327073,0.00000722,-0.00000478,-0.00457743,0.00000011,-0.00000014,-0.0
 0036662,0.00002994,-0.00000849,-0.06766821,0.00000244,0.00000014,0.004
 88433,-0.00000988,-0.00000404,0.00062917,0.00000102,0.00000038,0.00712
 945,-0.00006757,0.00001085,0.15793895,-0.00390501,0.01001075,0.0000012
 3,-0.00126800,-0.00165356,0.00000016,0.01417249,0.00644780,-0.00000072
 ,-0.00007062,-0.00198199,-0.00000034,0.00294475,-0.00622314,-0.0000006
 6,0.00025079,-0.00029888,-0.00000012,-0.03715873,-0.05729065,0.0000048
 6,0.00262535,-0.00022862,-0.00000069,-0.00691840,0.00086373,0.00000176
 ,0.00042905,0.00040388,-0.00000004,-0.13492915,-0.07945489,0.00000998,
 0.47234481,0.00419313,0.00271454,-0.00000066,-0.00024457,0.00010030,0.
 00000002,-0.02175613,-0.04956269,0.00000202,-0.00017252,0.00138879,0.0
 0000008,-0.00314642,-0.00510681,0.00000033,-0.00014217,0.00001022,0.00
 000003,-0.02414217,-0.00838352,0.00000296,0.00020776,0.00078670,0.0000
 0002,0.00681389,0.00090859,-0.00000096,-0.00101049,-0.00177553,0.00000
 009,-0.04084784,-0.24556771,0.00000301,0.10536470,0.38373318,0.0000010
 3,-0.00000159,0.00439988,0.00000018,0.00000019,0.00024529,-0.00000124,
 -0.00000210,0.00851367,-0.00000035,0.00000030,-0.00269174,-0.00000077,
 0.00000090,-0.00115218,-0.00000012,0.00000005,-0.00065425,0.00000549,0
 .00000715,0.00675004,-0.00000071,0.00000010,-0.00314771,0.00000210,-0.
 00000011,0.00654675,-0.00000007,-0.00000009,-0.00000015,0.00001024,0.0
 0000746,-0.04242371,-0.00004486,-0.00000943,0.06731426,-0.00131671,-0.
 00001209,0.00000041,0.00030016,0.00004304,-0.00000006,0.00626844,0.006
 25460,-0.00000079,-0.00110284,0.00060494,0.00000011,0.00142026,0.00172
 215,-0.00000013,-0.00006547,0.00009243,-0.00000003,0.00485015,0.000745
 24,-0.00000041,-0.00020229,-0.00000042,-0.00000007,-0.00245887,0.00033
 332,0.00000035,0.00018797,0.00066755,-0.00000001,-0.03103111,-0.021429
 45,0.00000263,-0.21520512,-0.00769196,0.00001742,0.44277386,-0.0015396
 8,-0.00011123,0.00000021,-0.00016430,-0.00036259,0.00000002,-0.0030214
 3,-0.00214241,0.00000029,-0.00193146,-0.00191847,0.00000012,-0.0003637
 6,0.00036036,0.00000005,-0.00002010,0.00000987,0.,0.00087256,-0.004781
 15,-0.00000025,-0.00035976,0.00025362,0.00000005,-0.00047811,0.0005917
 3,0.00000007,0.00006460,0.00008781,0.,-0.04225920,-0.00631250,0.000004
 70,0.02410725,-0.08761758,-0.00000288,0.00296399,0.61430471,0.00000040
 ,0.00000006,0.00161618,-0.00000006,0.,-0.00026171,-0.00000089,-0.00000
 066,-0.00100528,0.00000008,-0.00000012,-0.00013816,-0.00000007,-0.0000
 0025,0.00029707,-0.00000003,0.,-0.00031193,-0.00000023,-0.00000009,0.0
 0266600,-0.00000008,0.00000002,-0.00064408,0.00000025,-0.00000007,0.00
 029661,-0.00000002,-0.00000007,-0.00003099,0.00000272,0.00000240,-0.00
 560384,0.00001725,0.00000051,-0.05863100,0.00001308,0.00000006,0.56233
 937,-0.00042222,0.00045448,0.00000008,-0.00008810,-0.00014200,0.,-0.00
 080312,0.00093148,0.00000018,0.00078090,-0.00002613,-0.00000016,0.0001
 4080,-0.00005667,-0.00000003,0.00004426,-0.00001787,-0.00000001,-0.000
 54320,-0.00187229,0.00000006,-0.00002416,0.00005833,0.,0.00028878,-0.0
 0038868,-0.00000001,-0.00003780,-0.00006473,0.,-0.00478992,0.00264825,
 0.00000049,-0.02485581,-0.04158498,0.00000210,-0.05457063,-0.04578107,
 -0.00000072,0.07651595,-0.00006332,-0.00010269,0.,-0.00002054,-0.00001
 036,0.,0.00044510,-0.00032883,-0.00000008,-0.00049076,0.00014785,0.000
 00009,-0.00015989,-0.00004814,0.00000002,-0.00004192,-0.00001178,0.,0.
 00004597,-0.00003316,-0.00000002,-0.00002049,0.00000237,0.,-0.00011566
 ,0.00024590,0.,0.00001700,-0.00001352,0.,0.00112916,0.00219114,-0.0000
 0016,-0.00349134,0.00187826,0.00000052,-0.05899104,-0.31036387,0.00000
 072,0.06526530,0.32928406,0.00000005,-0.00000003,-0.00000559,0.,0.0000
 0002,-0.00004348,0.00000016,-0.00000010,0.00029674,-0.00000015,0.00000
 003,-0.00047189,-0.00000001,0.,-0.00006299,0.,0.,-0.00002844,0.0000000
 7,0.00000020,0.00023431,0.,0.,0.00001805,-0.00000002,0.00000003,0.0002
 2690,0.,0.,0.00003443,0.00000069,-0.00000023,0.00062203,0.00000271,0.0
 0000468,0.00031516,-0.00000095,-0.00000077,-0.05076101,-0.00000189,-0.
 00000088,0.04673972,0.00020829,0.00089757,-0.00033357,-0.00005141,-0.0
 0002291,0.00006294,0.00078837,-0.00074284,-0.00026859,-0.00004849,-0.0
 0068124,0.00069011,0.00045852,-0.00065699,0.00002931,0.00002215,-0.000
 03112,0.00007965,-0.00161630,-0.00098337,-0.00059735,0.00019358,-0.000
 02557,0.00021810,-0.00043756,-0.00041013,-0.00030104,-0.00001819,-0.00
 006619,0.00001677,0.00386763,0.00706322,0.00126859,-0.03422399,0.01207
 977,0.02868783,-0.07490896,0.03394354,0.06531963,0.00418132,-0.0017535
 7,-0.00597357,0.09503427,-0.00005243,0.00060995,-0.00004998,0.00002622
 ,0.00001807,0.00001652,0.00081474,0.00030639,0.00019579,-0.00080639,-0
 .00091004,0.00106976,0.00066131,-0.00011942,-0.00006097,0.00001534,0.0
 0000145,0.00008656,-0.00041554,-0.00018707,-0.00023982,0.00000696,-0.0
 0001728,0.00000377,-0.00060794,-0.00041572,-0.00044017,-0.00000755,0.0
 0003949,0.00004126,-0.00036221,0.00099292,0.00143019,0.00171298,0.0032
 4664,0.00332799,0.03733685,-0.10099507,-0.09312101,0.01028542,-0.01141
 808,-0.02619011,-0.04336211,0.10223198,-0.00014908,-0.00012834,-0.0000
 0982,0.00001269,0.00002028,0.00000928,0.00108291,-0.00042844,0.0000198
 6,-0.00059471,0.00044837,-0.00012945,0.00003767,0.00010195,-0.00005543
 ,-0.00006302,0.00000142,0.00002298,0.00032972,0.00043157,-0.00022151,-
 0.00009345,0.00000188,-0.00000504,-0.00046241,0.00022095,-0.00003950,0
 .00003099,0.00003926,0.00000679,-0.00093219,-0.00191391,0.00066159,0.0
 0548818,0.00354091,0.00730427,0.06947347,-0.09174771,-0.22493254,-0.00
 147483,0.00070762,0.00144325,-0.08078924,0.10131600,0.23671784,0.00020
 843,0.00089761,0.00033354,-0.00005142,-0.00002291,-0.00006293,0.000788
 19,-0.00074275,0.00026840,-0.00004843,-0.00068111,-0.00069002,0.000458
 52,-0.00065702,-0.00002947,0.00002214,-0.00003112,-0.00007965,-0.00161
 622,-0.00098343,0.00059770,0.00019354,-0.00002557,-0.00021814,-0.00043
 740,-0.00041020,0.00030113,-0.00001820,-0.00006619,-0.00001677,0.00386
 790,0.00706369,-0.00126889,-0.03423240,0.01208000,-0.02867827,-0.07493
 886,0.03396694,-0.06535130,0.00418295,-0.00175400,0.00597292,0.0065507
 8,-0.00524564,0.00810328,0.09507047,-0.00005242,0.00060996,0.00005003,
 0.00002622,0.00001807,-0.00001653,0.00081469,0.00030638,-0.00019593,-0
 .00080654,-0.00091005,-0.00106957,0.00066135,-0.00011943,0.00006080,0.
 00001531,0.00000145,-0.00008656,-0.00041548,-0.00018705,0.00023991,0.0
 0000695,-0.00001728,-0.00000378,-0.00060786,-0.00041575,0.00044030,-0.
 00000756,0.00003950,-0.00004126,-0.00036235,0.00099298,-0.00143006,0.0
 0171200,0.00324661,-0.00332846,0.03736084,-0.10100323,0.09311849,0.010
 29117,-0.01141914,0.02618717,-0.00524805,0.00661580,-0.01261180,-0.043
 38829,0.10224118,0.00014903,0.00012817,-0.00000993,-0.00001267,-0.0000
 2028,0.00000930,-0.00108295,0.00042856,0.00002011,0.00059469,-0.000448
 21,-0.00012947,-0.00003776,-0.00010182,-0.00005541,0.00006302,-0.00000
 141,0.00002297,-0.00032947,-0.00043136,-0.00022158,0.00009341,-0.00000
 187,-0.00000501,0.00046245,-0.00022087,-0.00003966,-0.00003098,-0.0000
 3924,0.00000680,0.00093137,0.00191233,0.00066163,-0.00547870,-0.003543
 62,0.00731143,-0.06950502,0.09174602,-0.22489468,0.00147472,-0.0007078
 6,0.00144282,-0.00810959,0.01261422,-0.02079257,0.08081846,-0.10131275
 ,0.23667324\\0.00000060,-0.00001776,0.,0.00000126,-0.00000605,0.,0.000
 00817,0.00000152,0.00000005,-0.00000013,0.00000350,0.,-0.00000314,0.00
 000517,0.00000001,0.00000751,-0.00000582,0.,0.00000826,0.00000698,-0.0
 0000003,-0.00000402,-0.00000599,0.,0.00000890,-0.00000071,-0.00000001,
 0.00000429,0.,0.,-0.00001708,-0.00000372,-0.00000020,-0.00000248,0.000
 00105,0.00000037,0.00000328,0.00000380,-0.00000026,-0.00000666,0.00000
 558,-0.00000002,-0.00000438,0.00000620,0.00000028,-0.00000438,0.000006
 25,-0.00000020\\\@


 A warm smile is the universal language of kindness.
                             -- William Arthur Ward
 Job cpu time:  0 days  0 hours 20 minutes  8.8 seconds.
 File lengths (MBytes):  RWF=     84 Int=      0 D2E=      0 Chk=      5 Scr=      1
 Normal termination of Gaussian 09 at Thu Sep 10 00:41:23 2015.
