 Entering Gaussian System, Link 0=g09
 Initial command:
 /apps/Gausian/g09/l1.exe /local/tm162.226812/scratch/Gau-20104.inp -scrdir=/local/tm162.226812/scratch/
 Entering Link 1 = /apps/Gausian/g09/l1.exe PID=     20105.
  
 Copyright (c) 1988,1990,1992,1993,1995,1998,2003,2009,2011,
            Gaussian, Inc.  All Rights Reserved.
  
 This is part of the Gaussian(R) 09 program.  It is based on
 the Gaussian(R) 03 system (copyright 2003, Gaussian, Inc.),
 the Gaussian(R) 98 system (copyright 1998, Gaussian, Inc.),
 the Gaussian(R) 94 system (copyright 1995, Gaussian, Inc.),
 the Gaussian 92(TM) system (copyright 1992, Gaussian, Inc.),
 the Gaussian 90(TM) system (copyright 1990, Gaussian, Inc.),
 the Gaussian 88(TM) system (copyright 1988, Gaussian, Inc.),
 the Gaussian 86(TM) system (copyright 1986, Carnegie Mellon
 University), and the Gaussian 82(TM) system (copyright 1983,
 Carnegie Mellon University). Gaussian is a federally registered
 trademark of Gaussian, Inc.
  
 This software contains proprietary and confidential information,
 including trade secrets, belonging to Gaussian, Inc.
  
 This software is provided under written license and may be
 used, copied, transmitted, or stored only in accord with that
 written license.
  
 The following legend is applicable only to US Government
 contracts under FAR:
  
                    RESTRICTED RIGHTS LEGEND
  
 Use, reproduction and disclosure by the US Government is
 subject to restrictions as set forth in subparagraphs (a)
 and (c) of the Commercial Computer Software - Restricted
 Rights clause in FAR 52.227-19.
  
 Gaussian, Inc.
 340 Quinnipiac St., Bldg. 40, Wallingford CT 06492
  
  
 ---------------------------------------------------------------
 Warning -- This program may not be used in any manner that
 competes with the business of Gaussian, Inc. or will provide
 assistance to any competitor of Gaussian, Inc.  The licensee
 of this program is prohibited from giving any competitor of
 Gaussian, Inc. access to this program.  By using this program,
 the user acknowledges that Gaussian, Inc. is engaged in the
 business of creating and licensing software in the field of
 computational chemistry and represents and warrants to the
 licensee that it is not a competitor of Gaussian, Inc. and that
 it will not use this program in any manner prohibited above.
 ---------------------------------------------------------------
  

 Cite this work as:
 Gaussian 09, Revision C.01,
 M. J. Frisch, G. W. Trucks, H. B. Schlegel, G. E. Scuseria, 
 M. A. Robb, J. R. Cheeseman, G. Scalmani, V. Barone, B. Mennucci, 
 G. A. Petersson, H. Nakatsuji, M. Caricato, X. Li, H. P. Hratchian, 
 A. F. Izmaylov, J. Bloino, G. Zheng, J. L. Sonnenberg, M. Hada, 
 M. Ehara, K. Toyota, R. Fukuda, J. Hasegawa, M. Ishida, T. Nakajima, 
 Y. Honda, O. Kitao, H. Nakai, T. Vreven, J. A. Montgomery, Jr., 
 J. E. Peralta, F. Ogliaro, M. Bearpark, J. J. Heyd, E. Brothers, 
 K. N. Kudin, V. N. Staroverov, T. Keith, R. Kobayashi, J. Normand, 
 K. Raghavachari, A. Rendell, J. C. Burant, S. S. Iyengar, J. Tomasi, 
 M. Cossi, N. Rega, J. M. Millam, M. Klene, J. E. Knox, J. B. Cross, 
 V. Bakken, C. Adamo, J. Jaramillo, R. Gomperts, R. E. Stratmann, 
 O. Yazyev, A. J. Austin, R. Cammi, C. Pomelli, J. W. Ochterski, 
 R. L. Martin, K. Morokuma, V. G. Zakrzewski, G. A. Voth, 
 P. Salvador, J. J. Dannenberg, S. Dapprich, A. D. Daniels, 
 O. Farkas, J. B. Foresman, J. V. Ortiz, J. Cioslowski, 
 and D. J. Fox, Gaussian, Inc., Wallingford CT, 2010.
 
 ******************************************
 Gaussian 09:  EM64L-G09RevC.01 23-Sep-2011
                25-Sep-2015 
 ******************************************
 %rwf=/local/tm162.226812/S1.rwf
 %nosave
 %chk=/local/tm162.226812/S1.chk
 %nproc=8
 Will use up to    8 processors via shared memory.
 %mem=12Gb
 ----------------------------------------------------------------------
 #P TD(Singlets NStates=2 Root=1) Opt(tight MaxCycles=150) IOP(1/33=1) 
 NoSymm B3LYP/6-311+G(d,p) Formcheck Freq
 ----------------------------------------------------------------------
 1/6=150,7=10,14=-1,18=20,19=15,26=3,33=1,38=1/1,3;
 2/9=110,12=2,15=1,17=6,18=5,40=1/2;
 3/5=4,6=6,7=111,11=2,16=1,25=1,30=1,71=1,74=-5/1,2,8,3;
 4//1;
 5/5=2,38=5/2;
 8/6=1,10=2,107=1,108=2/1;
 9/8=1,15=2,41=2,42=1,48=1/14;
 10/5=4,31=1/2;
 6/7=2,8=2,9=2,10=2/1;
 7/12=6,13=5,14=1,30=1/1,2,3,16;
 1/6=150,7=10,14=-1,18=20,19=15,33=1/3(2);
 2/9=110,15=1/2;
 99//99;
 2/9=110,15=1/2;
 3/5=4,6=6,7=111,11=2,16=1,25=1,30=1,71=1,74=-5/1,2,8,3;
 4/5=5,16=3/1;
 5/5=2,38=5/2;
 8/6=1,10=2,107=1,108=2/1;
 9/8=1,15=2,41=2,42=1,48=1,49=4/14;
 10/5=4,31=1/2;
 7/12=6,13=5,14=1,30=1/1,2,3,16;
 1/6=150,7=10,14=-1,18=20,19=15,33=1/3(-8);
 2/9=110,15=1/2;
 6/7=2,8=2,9=2,10=2/1;
 99//99;
 Leave Link    1 at Fri Sep 25 09:24:26 2015, MaxMem= 1610612736 cpu:       0.3
 (Enter /apps/Gausian/g09/l101.exe)
 ONIOM data not found on unit 2.
 ------
 anisol
 ------
 Charge =  0 Multiplicity = 1
 Symbolic Z-Matrix:
 6                     1.43853  -0.01118  -0.00012 
 1                     2.51977  -0.02532  -0.00026 
 6                    -1.43576   0.08251   0.00025 
 1                    -2.51507   0.11042   0.0004 
 6                     0.74177   1.21749  -0.00002 
 1                     1.30848   2.1424   -0.00008 
 6                     0.69727  -1.22783  -0.00004 
 1                     1.1652   -2.20202  -0.00012 
 6                    -0.6744    1.28815   0.00017 
 1                    -1.1721    2.24812   0.00024 
 6                    -0.7248   -1.14794   0.00014 
 8                    -1.33932  -2.34924   0.00021 
 6                    -2.76521  -2.44721   0.00036 
 1                    -2.98386  -3.51258   0.00032 
 1                    -3.18218  -1.97946   0.89542 
 1                    -3.18238  -1.97934  -0.89454 
 
 RdStrC is calling ZToCFu for IStruc=1 NZ=    16.
 PrtBox:  NBox=     4 Levels=  2 BoxLen=    8.00 SMaxX=       10.89
          Shift=            6.013829            6.637809            1.690434
 Box      1 Number                   0 centers from      1 to      9:
 Box      2 Number                   2 centers from     10 to     12:
 Box      3 Number                   4 centers from     13 to     15:
 Box      4 Number                   6 centers from     16 to     16:
 ITRead=  0  0  0  0  0  0  0  0  0  0  0  0  0  0  0  0
 MicOpt= -1 -1 -1 -1 -1 -1 -1 -1 -1 -1 -1 -1 -1 -1 -1 -1
 NAtoms=     16 NQM=        0 NQMF=       0 NMMI=     16 NMMIF=      0
                NMic=       0 NMicF=      0.
                    Isotopes and Nuclear Properties:
 (Nuclear quadrupole moments (NQMom) in fm**2, nuclear magnetic moments (NMagM)
  in nuclear magnetons)

  Atom         1           2           3           4           5           6           7           8           9          10
 IAtWgt=          12           1          12           1          12           1          12           1          12           1
 AtmWgt=  12.0000000   1.0078250  12.0000000   1.0078250  12.0000000   1.0078250  12.0000000   1.0078250  12.0000000   1.0078250
 NucSpn=           0           1           0           1           0           1           0           1           0           1
 AtZEff=   0.0000000   0.0000000   0.0000000   0.0000000   0.0000000   0.0000000   0.0000000   0.0000000   0.0000000   0.0000000
 NQMom=    0.0000000   0.0000000   0.0000000   0.0000000   0.0000000   0.0000000   0.0000000   0.0000000   0.0000000   0.0000000
 NMagM=    0.0000000   2.7928460   0.0000000   2.7928460   0.0000000   2.7928460   0.0000000   2.7928460   0.0000000   2.7928460

  Atom        11          12          13          14          15          16
 IAtWgt=          12          16          12           1           1           1
 AtmWgt=  12.0000000  15.9949146  12.0000000   1.0078250   1.0078250   1.0078250
 NucSpn=           0           0           0           1           1           1
 AtZEff=   0.0000000   0.0000000   0.0000000   0.0000000   0.0000000   0.0000000
 NQMom=    0.0000000   0.0000000   0.0000000   0.0000000   0.0000000   0.0000000
 NMagM=    0.0000000   0.0000000   0.0000000   2.7928460   2.7928460   2.7928460
 No MM parameters found.
 Leave Link  101 at Fri Sep 25 09:24:26 2015, MaxMem= 1610612736 cpu:       1.7
 (Enter /apps/Gausian/g09/l103.exe)

 GradGradGradGradGradGradGradGradGradGradGradGradGradGradGradGradGradGrad
 Berny optimization.
 Initialization pass.
                           ----------------------------
                           !    Initial Parameters    !
                           ! (Angstroms and Degrees)  !
 --------------------------                            --------------------------
 ! Name  Definition              Value          Derivative Info.                !
 --------------------------------------------------------------------------------
 ! R1    R(1,2)                  1.0813         estimate D2E/DX2                !
 ! R2    R(1,5)                  1.4125         estimate D2E/DX2                !
 ! R3    R(1,7)                  1.4247         estimate D2E/DX2                !
 ! R4    R(3,4)                  1.0797         estimate D2E/DX2                !
 ! R5    R(3,9)                  1.4259         estimate D2E/DX2                !
 ! R6    R(3,11)                 1.4211         estimate D2E/DX2                !
 ! R7    R(5,6)                  1.0847         estimate D2E/DX2                !
 ! R8    R(5,9)                  1.4179         estimate D2E/DX2                !
 ! R9    R(7,8)                  1.0807         estimate D2E/DX2                !
 ! R10   R(7,11)                 1.4243         estimate D2E/DX2                !
 ! R11   R(9,10)                 1.0813         estimate D2E/DX2                !
 ! R12   R(11,12)                1.3494         estimate D2E/DX2                !
 ! R13   R(12,13)                1.4292         estimate D2E/DX2                !
 ! R14   R(13,14)                1.0876         estimate D2E/DX2                !
 ! R15   R(13,15)                1.0926         estimate D2E/DX2                !
 ! R16   R(13,16)                1.0926         estimate D2E/DX2                !
 ! A1    A(2,1,5)              120.3061         estimate D2E/DX2                !
 ! A2    A(2,1,7)              120.6034         estimate D2E/DX2                !
 ! A3    A(5,1,7)              119.0906         estimate D2E/DX2                !
 ! A4    A(4,3,9)              120.7905         estimate D2E/DX2                !
 ! A5    A(4,3,11)             121.5014         estimate D2E/DX2                !
 ! A6    A(9,3,11)             117.7082         estimate D2E/DX2                !
 ! A7    A(1,5,6)              118.9465         estimate D2E/DX2                !
 ! A8    A(1,5,9)              122.4132         estimate D2E/DX2                !
 ! A9    A(6,5,9)              118.6403         estimate D2E/DX2                !
 ! A10   A(1,7,8)              122.9913         estimate D2E/DX2                !
 ! A11   A(1,7,11)             118.1372         estimate D2E/DX2                !
 ! A12   A(8,7,11)             118.8715         estimate D2E/DX2                !
 ! A13   A(3,9,5)              119.4158         estimate D2E/DX2                !
 ! A14   A(3,9,10)             120.3232         estimate D2E/DX2                !
 ! A15   A(5,9,10)             120.261          estimate D2E/DX2                !
 ! A16   A(3,11,7)             123.2351         estimate D2E/DX2                !
 ! A17   A(3,11,12)            122.8884         estimate D2E/DX2                !
 ! A18   A(7,11,12)            113.8765         estimate D2E/DX2                !
 ! A19   A(11,12,13)           121.0221         estimate D2E/DX2                !
 ! A20   A(12,13,14)           105.5282         estimate D2E/DX2                !
 ! A21   A(12,13,15)           110.5778         estimate D2E/DX2                !
 ! A22   A(12,13,16)           110.578          estimate D2E/DX2                !
 ! A23   A(14,13,15)           110.0398         estimate D2E/DX2                !
 ! A24   A(14,13,16)           110.0401         estimate D2E/DX2                !
 ! A25   A(15,13,16)           109.9945         estimate D2E/DX2                !
 ! D1    D(2,1,5,6)              0.0            estimate D2E/DX2                !
 ! D2    D(2,1,5,9)           -179.9999         estimate D2E/DX2                !
 ! D3    D(7,1,5,6)            180.0            estimate D2E/DX2                !
 ! D4    D(7,1,5,9)              0.0            estimate D2E/DX2                !
 ! D5    D(2,1,7,8)             -0.0008         estimate D2E/DX2                !
 ! D6    D(2,1,7,11)          -180.0            estimate D2E/DX2                !
 ! D7    D(5,1,7,8)            179.9992         estimate D2E/DX2                !
 ! D8    D(5,1,7,11)             0.0001         estimate D2E/DX2                !
 ! D9    D(4,3,9,5)            179.9989         estimate D2E/DX2                !
 ! D10   D(4,3,9,10)            -0.0011         estimate D2E/DX2                !
 ! D11   D(11,3,9,5)             0.0002         estimate D2E/DX2                !
 ! D12   D(11,3,9,10)         -179.9998         estimate D2E/DX2                !
 ! D13   D(4,3,11,7)          -179.9988         estimate D2E/DX2                !
 ! D14   D(4,3,11,12)            0.0011         estimate D2E/DX2                !
 ! D15   D(9,3,11,7)            -0.0001         estimate D2E/DX2                !
 ! D16   D(9,3,11,12)          179.9997         estimate D2E/DX2                !
 ! D17   D(1,5,9,3)             -0.0002         estimate D2E/DX2                !
 ! D18   D(1,5,9,10)           179.9999         estimate D2E/DX2                !
 ! D19   D(6,5,9,3)            179.9999         estimate D2E/DX2                !
 ! D20   D(6,5,9,10)            -0.0001         estimate D2E/DX2                !
 ! D21   D(1,7,11,3)            -0.0001         estimate D2E/DX2                !
 ! D22   D(1,7,11,12)         -179.9999         estimate D2E/DX2                !
 ! D23   D(8,7,11,3)          -179.9992         estimate D2E/DX2                !
 ! D24   D(8,7,11,12)            0.0009         estimate D2E/DX2                !
 ! D25   D(3,11,12,13)           0.0016         estimate D2E/DX2                !
 ! D26   D(7,11,12,13)        -179.9985         estimate D2E/DX2                !
 ! D27   D(11,12,13,14)        179.9963         estimate D2E/DX2                !
 ! D28   D(11,12,13,15)        -61.043          estimate D2E/DX2                !
 ! D29   D(11,12,13,16)         61.0352         estimate D2E/DX2                !
 --------------------------------------------------------------------------------
 Maximum allowed force set to 1.00D+20.
 Trust Radius=3.00D-01 FncErr=1.00D-07 GrdErr=1.00D-06
 Number of steps in this run=    100 maximum allowed number of steps=    100.
 GradGradGradGradGradGradGradGradGradGradGradGradGradGradGradGradGradGrad

 Leave Link  103 at Fri Sep 25 09:24:26 2015, MaxMem= 1610612736 cpu:       0.0
 (Enter /apps/Gausian/g09/l202.exe)
                          Input orientation:                          
 ---------------------------------------------------------------------
 Center     Atomic      Atomic             Coordinates (Angstroms)
 Number     Number       Type             X           Y           Z
 ---------------------------------------------------------------------
      1          6           0        1.438534   -0.011183   -0.000120
      2          1           0        2.519773   -0.025322   -0.000258
      3          6           0       -1.435763    0.082505    0.000247
      4          1           0       -2.515072    0.110422    0.000404
      5          6           0        0.741771    1.217495   -0.000018
      6          1           0        1.308476    2.142396   -0.000081
      7          6           0        0.697271   -1.227831   -0.000037
      8          1           0        1.165199   -2.202020   -0.000119
      9          6           0       -0.674404    1.288154    0.000165
     10          1           0       -1.172100    2.248117    0.000241
     11          6           0       -0.724800   -1.147942    0.000144
     12          8           0       -1.339322   -2.349244    0.000213
     13          6           0       -2.765207   -2.447208    0.000362
     14          1           0       -2.983855   -3.512577    0.000322
     15          1           0       -3.182182   -1.979455    0.895417
     16          1           0       -3.182381   -1.979343   -0.894539
 ---------------------------------------------------------------------
                    Distance matrix (angstroms):
                    1          2          3          4          5
     1  C    0.000000
     2  H    1.081331   0.000000
     3  C    2.875824   3.957005   0.000000
     4  H    3.955476   5.036675   1.079670   0.000000
     5  C    1.412490   2.169305   2.455577   3.439860   0.000000
     6  H    2.157503   2.483192   3.431326   4.329947   1.084710
     7  C    1.424677   2.183470   2.503361   3.479952   2.445731
     8  H    2.207822   2.563764   3.461800   4.346468   3.445631
     9  C    2.480481   3.453692   1.425923   2.185203   1.417937
    10  H    3.452513   4.335718   2.181603   2.524542   2.173726
    11  C    2.443816   3.433297   1.421080   2.188276   2.783186
    12  O    3.630842   4.504801   2.433661   2.726233   4.129476
    13  C    4.858565   5.813480   2.857773   2.569832   5.072371
    14  H    5.640681   6.515433   3.914231   3.653201   6.021119
    15  H    5.101676   6.093698   2.846575   2.369318   5.140010
    16  H    5.101617   6.093644   2.846495   2.369249   5.139933
                    6          7          8          9         10
     6  H    0.000000
     7  C    3.425201   0.000000
     8  H    4.346778   1.080741   0.000000
     9  C    2.159061   2.865602   3.945308   0.000000
    10  H    2.482828   3.946741   5.026598   1.081310   0.000000
    11  C    3.867885   1.424313   2.164065   2.436617   3.425390
    12  O    5.213987   2.324925   2.508844   3.697672   4.600401
    13  C    6.136722   3.670917   3.938046   4.280699   4.958232
    14  H    7.099495   4.332523   4.351116   5.327343   6.038878
    15  H    6.160972   4.051781   4.444237   4.215174   4.765935
    16  H    6.160892   4.051741   4.444212   4.215090   4.765845
                   11         12         13         14         15
    11  C    0.000000
    12  O    1.349357   0.000000
    13  C    2.418957   1.429246   0.000000
    14  H    3.270295   2.014406   1.087574   0.000000
    15  H    2.744386   2.081890   1.092604   1.786335   0.000000
    16  H    2.744338   2.081892   1.092602   1.786336   1.789956
                   16
    16  H    0.000000
 Symmetry turned off by external request.
 Stoichiometry    C7H8O
 Framework group  C1[X(C7H8O)]
 Deg. of freedom    42
 Full point group                 C1      NOp   1
 Rotational constants (GHZ):      4.8448410      1.5516552      1.1841482
 Leave Link  202 at Fri Sep 25 09:24:26 2015, MaxMem= 1610612736 cpu:       0.1
 (Enter /apps/Gausian/g09/l301.exe)
 Standard basis: 6-311+G(d,p) (5D, 7F)
 Ernie: Thresh=  0.10000D-02 Tol=  0.10000D-05 Strict=F.
 Integral buffers will be    131072 words long.
 Raffenetti 2 integral format.
 Two-electron integral symmetry is turned off.
   224 basis functions,   352 primitive gaussians,   232 cartesian basis functions
    29 alpha electrons       29 beta electrons
       nuclear repulsion energy       342.3995173346 Hartrees.
 IExCor=  402 DFT=T Ex+Corr=B3LYP ExCW=0 ScaHFX=  0.200000
 ScaDFX=  0.800000  0.720000  1.000000  0.810000 ScalE2=  1.000000  1.000000
 IRadAn=      0 IRanWt=     -1 IRanGd=            0 ICorTp=0
 NAtoms=   16 NActive=   16 NUniq=   16 SFac= 1.00D+00 NAtFMM=   60 NAOKFM=F Big=F
 Leave Link  301 at Fri Sep 25 09:24:26 2015, MaxMem= 1610612736 cpu:       0.5
 (Enter /apps/Gausian/g09/l302.exe)
 NPDir=0 NMtPBC=     1 NCelOv=     1 NCel=       1 NClECP=     1 NCelD=      1
         NCelK=      1 NCelE2=     1 NClLst=     1 CellRange=     0.0.
 One-electron integrals computed using PRISM.
 NBasis=   224 RedAO= T  NBF=   224
 NBsUse=   224 1.00D-06 NBFU=   224
 Precomputing XC quadrature grid using
 IXCGrd= 2 IRadAn=           0 IRanWt=          -1 IRanGd=           0 AccXCQ= 0.00D+00.
 NRdTot=    1031 NPtTot=      131318 NUsed=      138756 NTot=      138788
 NSgBfM=   232   232   232   232   232 NAtAll=    16    16.
 Leave Link  302 at Fri Sep 25 09:24:26 2015, MaxMem= 1610612736 cpu:       2.2
 (Enter /apps/Gausian/g09/l308.exe)
 Leave Link  308 at Fri Sep 25 09:24:27 2015, MaxMem= 1610612736 cpu:       0.9
 (Enter /apps/Gausian/g09/l303.exe)
 DipDrv:  MaxL=1.
 Leave Link  303 at Fri Sep 25 09:24:27 2015, MaxMem= 1610612736 cpu:       0.5
 (Enter /apps/Gausian/g09/l401.exe)
 Harris functional with IExCor=  402 diagonalized for initial guess.
 ExpMin= 4.38D-02 ExpMax= 8.59D+03 ExpMxC= 1.30D+03 IAcc=2 IRadAn=         4 AccDes= 0.00D+00
 HarFok:  IExCor=  402 AccDes= 0.00D+00 IRadAn=         4 IDoV= 1
 ScaDFX=  1.000000  1.000000  1.000000  1.000000
 FoFCou: FMM=F IPFlag=           0 FMFlag=      100000 FMFlg1=           0
         NFxFlg=           0 DoJE=T BraDBF=F KetDBF=T FulRan=T
         Omega=  0.000000  0.000000  1.000000  0.000000  0.000000 ICntrl=     500 IOpCl=  0
         NMat0=    1 NMatS0=    1 NMatT0=    0 NMatD0=    1 NMtDS0=    0 NMtDT0=    0
         I1Cent=           4 NGrid=           0.
 Symmetry not used in FoFCou.
 Harris En= -346.869475508459    
 Leave Link  401 at Fri Sep 25 09:24:27 2015, MaxMem= 1610612736 cpu:       5.0
 (Enter /apps/Gausian/g09/l502.exe)
 Closed shell SCF:
 Requested convergence on RMS density matrix=1.00D-08 within 128 cycles.
 Requested convergence on MAX density matrix=1.00D-06.
 Requested convergence on             energy=1.00D-06.
 No special actions if energy rises.
 Using DIIS extrapolation, IDIIS=  1040.
 Two-electron integral symmetry not used.
       138599 words used for storage of precomputed grid.
 Keep R1 ints in memory in canonical form, NReq=371915969.
 IEnd=      321497 IEndB=      321497 NGot=  1610612736 MDV=  1245092002
 LenX=  1245092002 LenY=  1245037737
 Symmetry not used in FoFDir.
 MinBra= 0 MaxBra= 2 Meth= 1.
 IRaf=       0 NMat=   1 IRICut=       1 DoRegI=T DoRafI=F ISym2E= 0 JSym2E=0.

 Cycle   1  Pass 1  IDiag  1:
 E= -346.684778503013    
 DIIS: error= 3.14D-02 at cycle   1 NSaved=   1.
 NSaved= 1 IEnMin= 1 EnMin= -346.684778503013     IErMin= 1 ErrMin= 3.14D-02
 ErrMax= 3.14D-02 EMaxC= 1.00D-01 BMatC= 1.83D-01 BMatP= 1.83D-01
 IDIUse=3 WtCom= 6.86D-01 WtEn= 3.14D-01
 Coeff-Com:  0.100D+01
 Coeff-En:   0.100D+01
 Coeff:      0.100D+01
 Gap=     0.220 Goal=   None    Shift=    0.000
 GapD=    0.220 DampG=1.000 DampE=0.500 DampFc=0.5000 IDamp=-1.
 Damping current iteration by 5.00D-01
 RMSDP=8.40D-03 MaxDP=3.45D-01              OVMax= 2.16D-01

 Cycle   2  Pass 1  IDiag  1:
 E= -346.763117657113     Delta-E=       -0.078339154101 Rises=F Damp=T
 DIIS: error= 4.72D-03 at cycle   2 NSaved=   2.
 NSaved= 2 IEnMin= 2 EnMin= -346.763117657113     IErMin= 2 ErrMin= 4.72D-03
 ErrMax= 4.72D-03 EMaxC= 1.00D-01 BMatC= 1.14D-02 BMatP= 1.83D-01
 IDIUse=3 WtCom= 9.53D-01 WtEn= 4.72D-02
 Coeff-Com:  0.231D-01 0.977D+00
 Coeff-En:   0.961D-01 0.904D+00
 Coeff:      0.266D-01 0.973D+00
 Gap=     0.232 Goal=   None    Shift=    0.000
 RMSDP=1.93D-03 MaxDP=1.11D-01 DE=-7.83D-02 OVMax= 1.53D-01

 Cycle   3  Pass 1  IDiag  1:
 E= -346.853446485123     Delta-E=       -0.090328828009 Rises=F Damp=F
 DIIS: error= 8.32D-03 at cycle   3 NSaved=   3.
 NSaved= 3 IEnMin= 3 EnMin= -346.853446485123     IErMin= 2 ErrMin= 4.72D-03
 ErrMax= 8.32D-03 EMaxC= 1.00D-01 BMatC= 7.96D-03 BMatP= 1.14D-02
 IDIUse=3 WtCom= 9.17D-01 WtEn= 8.32D-02
 Coeff-Com: -0.475D-01 0.458D+00 0.589D+00
 Coeff-En:   0.000D+00 0.000D+00 0.100D+01
 Coeff:     -0.435D-01 0.420D+00 0.623D+00
 Gap=     0.203 Goal=   None    Shift=    0.000
 RMSDP=1.22D-03 MaxDP=1.15D-01 DE=-9.03D-02 OVMax= 6.96D-02

 Cycle   4  Pass 1  IDiag  1:
 E= -346.857849058793     Delta-E=       -0.004402573671 Rises=F Damp=F
 DIIS: error= 6.64D-03 at cycle   4 NSaved=   4.
 NSaved= 4 IEnMin= 4 EnMin= -346.857849058793     IErMin= 2 ErrMin= 4.72D-03
 ErrMax= 6.64D-03 EMaxC= 1.00D-01 BMatC= 3.78D-03 BMatP= 7.96D-03
 IDIUse=3 WtCom= 9.34D-01 WtEn= 6.64D-02
 Coeff-Com: -0.347D-01 0.159D+00 0.427D+00 0.449D+00
 Coeff-En:   0.000D+00 0.000D+00 0.355D+00 0.645D+00
 Coeff:     -0.324D-01 0.148D+00 0.423D+00 0.462D+00
 Gap=     0.199 Goal=   None    Shift=    0.000
 RMSDP=4.96D-04 MaxDP=1.33D-02 DE=-4.40D-03 OVMax= 3.05D-02

 Cycle   5  Pass 1  IDiag  1:
 E= -346.862001553665     Delta-E=       -0.004152494871 Rises=F Damp=F
 DIIS: error= 8.61D-04 at cycle   5 NSaved=   5.
 NSaved= 5 IEnMin= 5 EnMin= -346.862001553665     IErMin= 5 ErrMin= 8.61D-04
 ErrMax= 8.61D-04 EMaxC= 1.00D-01 BMatC= 8.99D-05 BMatP= 3.78D-03
 IDIUse=3 WtCom= 9.91D-01 WtEn= 8.61D-03
 Coeff-Com: -0.969D-02 0.279D-01 0.127D+00 0.206D+00 0.649D+00
 Coeff-En:   0.000D+00 0.000D+00 0.000D+00 0.000D+00 0.100D+01
 Coeff:     -0.961D-02 0.276D-01 0.126D+00 0.204D+00 0.652D+00
 Gap=     0.199 Goal=   None    Shift=    0.000
 RMSDP=1.01D-04 MaxDP=3.83D-03 DE=-4.15D-03 OVMax= 3.70D-03

 Cycle   6  Pass 1  IDiag  1:
 E= -346.862077857016     Delta-E=       -0.000076303351 Rises=F Damp=F
 DIIS: error= 2.25D-04 at cycle   6 NSaved=   6.
 NSaved= 6 IEnMin= 6 EnMin= -346.862077857016     IErMin= 6 ErrMin= 2.25D-04
 ErrMax= 2.25D-04 EMaxC= 1.00D-01 BMatC= 1.08D-05 BMatP= 8.99D-05
 IDIUse=3 WtCom= 9.98D-01 WtEn= 2.25D-03
 Coeff-Com: -0.357D-02 0.629D-02 0.470D-01 0.896D-01 0.364D+00 0.496D+00
 Coeff-En:   0.000D+00 0.000D+00 0.000D+00 0.000D+00 0.000D+00 0.100D+01
 Coeff:     -0.357D-02 0.628D-02 0.469D-01 0.894D-01 0.364D+00 0.497D+00
 Gap=     0.199 Goal=   None    Shift=    0.000
 RMSDP=4.44D-05 MaxDP=2.94D-03 DE=-7.63D-05 OVMax= 1.01D-03

 Cycle   7  Pass 1  IDiag  1:
 E= -346.862086184954     Delta-E=       -0.000008327939 Rises=F Damp=F
 DIIS: error= 7.66D-05 at cycle   7 NSaved=   7.
 NSaved= 7 IEnMin= 7 EnMin= -346.862086184954     IErMin= 7 ErrMin= 7.66D-05
 ErrMax= 7.66D-05 EMaxC= 1.00D-01 BMatC= 4.58D-07 BMatP= 1.08D-05
 IDIUse=1 WtCom= 1.00D+00 WtEn= 0.00D+00
 Coeff-Com: -0.910D-03 0.868D-03 0.135D-01 0.281D-01 0.129D+00 0.240D+00
 Coeff-Com:  0.589D+00
 Coeff:     -0.910D-03 0.868D-03 0.135D-01 0.281D-01 0.129D+00 0.240D+00
 Coeff:      0.589D+00
 Gap=     0.199 Goal=   None    Shift=    0.000
 RMSDP=1.18D-05 MaxDP=8.40D-04 DE=-8.33D-06 OVMax= 3.91D-04

 Cycle   8  Pass 1  IDiag  1:
 E= -346.862086505278     Delta-E=       -0.000000320323 Rises=F Damp=F
 DIIS: error= 3.19D-05 at cycle   8 NSaved=   8.
 NSaved= 8 IEnMin= 8 EnMin= -346.862086505278     IErMin= 8 ErrMin= 3.19D-05
 ErrMax= 3.19D-05 EMaxC= 1.00D-01 BMatC= 1.30D-07 BMatP= 4.58D-07
 IDIUse=1 WtCom= 1.00D+00 WtEn= 0.00D+00
 Coeff-Com:  0.248D-04-0.510D-03 0.944D-03 0.306D-02 0.231D-01 0.703D-01
 Coeff-Com:  0.384D+00 0.519D+00
 Coeff:      0.248D-04-0.510D-03 0.944D-03 0.306D-02 0.231D-01 0.703D-01
 Coeff:      0.384D+00 0.519D+00
 Gap=     0.199 Goal=   None    Shift=    0.000
 RMSDP=3.57D-06 MaxDP=1.99D-04 DE=-3.20D-07 OVMax= 1.77D-04

 Cycle   9  Pass 1  IDiag  1:
 E= -346.862086644457     Delta-E=       -0.000000139179 Rises=F Damp=F
 DIIS: error= 7.12D-06 at cycle   9 NSaved=   9.
 NSaved= 9 IEnMin= 9 EnMin= -346.862086644457     IErMin= 9 ErrMin= 7.12D-06
 ErrMax= 7.12D-06 EMaxC= 1.00D-01 BMatC= 3.39D-09 BMatP= 1.30D-07
 IDIUse=1 WtCom= 1.00D+00 WtEn= 0.00D+00
 Coeff-Com:  0.598D-04-0.237D-03-0.341D-03-0.297D-03 0.250D-02 0.154D-01
 Coeff-Com:  0.130D+00 0.219D+00 0.635D+00
 Coeff:      0.598D-04-0.237D-03-0.341D-03-0.297D-03 0.250D-02 0.154D-01
 Coeff:      0.130D+00 0.219D+00 0.635D+00
 Gap=     0.199 Goal=   None    Shift=    0.000
 RMSDP=4.71D-07 MaxDP=2.41D-05 DE=-1.39D-07 OVMax= 3.24D-05

 Cycle  10  Pass 1  IDiag  1:
 E= -346.862086646893     Delta-E=       -0.000000002436 Rises=F Damp=F
 DIIS: error= 3.12D-06 at cycle  10 NSaved=  10.
 NSaved=10 IEnMin=10 EnMin= -346.862086646893     IErMin=10 ErrMin= 3.12D-06
 ErrMax= 3.12D-06 EMaxC= 1.00D-01 BMatC= 1.06D-09 BMatP= 3.39D-09
 IDIUse=1 WtCom= 1.00D+00 WtEn= 0.00D+00
 Coeff-Com:  0.311D-04-0.796D-04-0.287D-03-0.486D-03-0.978D-03 0.841D-03
 Coeff-Com:  0.289D-01 0.622D-01 0.387D+00 0.523D+00
 Coeff:      0.311D-04-0.796D-04-0.287D-03-0.486D-03-0.978D-03 0.841D-03
 Coeff:      0.289D-01 0.622D-01 0.387D+00 0.523D+00
 Gap=     0.199 Goal=   None    Shift=    0.000
 RMSDP=2.53D-07 MaxDP=2.01D-05 DE=-2.44D-09 OVMax= 1.36D-05

 Cycle  11  Pass 1  IDiag  1:
 E= -346.862086647948     Delta-E=       -0.000000001055 Rises=F Damp=F
 DIIS: error= 5.05D-07 at cycle  11 NSaved=  11.
 NSaved=11 IEnMin=11 EnMin= -346.862086647948     IErMin=11 ErrMin= 5.05D-07
 ErrMax= 5.05D-07 EMaxC= 1.00D-01 BMatC= 3.71D-11 BMatP= 1.06D-09
 IDIUse=1 WtCom= 1.00D+00 WtEn= 0.00D+00
 Coeff-Com:  0.114D-04-0.248D-04-0.121D-03-0.234D-03-0.683D-03-0.678D-03
 Coeff-Com:  0.421D-02 0.146D-01 0.145D+00 0.243D+00 0.594D+00
 Coeff:      0.114D-04-0.248D-04-0.121D-03-0.234D-03-0.683D-03-0.678D-03
 Coeff:      0.421D-02 0.146D-01 0.145D+00 0.243D+00 0.594D+00
 Gap=     0.199 Goal=   None    Shift=    0.000
 RMSDP=6.38D-08 MaxDP=3.01D-06 DE=-1.06D-09 OVMax= 2.98D-06

 Cycle  12  Pass 1  IDiag  1:
 E= -346.862086647973     Delta-E=       -0.000000000025 Rises=F Damp=F
 DIIS: error= 3.73D-07 at cycle  12 NSaved=  12.
 NSaved=12 IEnMin=12 EnMin= -346.862086647973     IErMin=12 ErrMin= 3.73D-07
 ErrMax= 3.73D-07 EMaxC= 1.00D-01 BMatC= 8.03D-12 BMatP= 3.71D-11
 IDIUse=1 WtCom= 1.00D+00 WtEn= 0.00D+00
 Coeff-Com:  0.476D-06 0.129D-05-0.820D-05-0.351D-04-0.143D-03-0.345D-03
 Coeff-Com: -0.257D-02-0.274D-02 0.111D-01 0.395D-01 0.337D+00 0.618D+00
 Coeff:      0.476D-06 0.129D-05-0.820D-05-0.351D-04-0.143D-03-0.345D-03
 Coeff:     -0.257D-02-0.274D-02 0.111D-01 0.395D-01 0.337D+00 0.618D+00
 Gap=     0.199 Goal=   None    Shift=    0.000
 RMSDP=2.45D-08 MaxDP=2.09D-06 DE=-2.55D-11 OVMax= 1.52D-06

 Cycle  13  Pass 1  IDiag  1:
 E= -346.862086647982     Delta-E=       -0.000000000008 Rises=F Damp=F
 DIIS: error= 2.27D-08 at cycle  13 NSaved=  13.
 NSaved=13 IEnMin=13 EnMin= -346.862086647982     IErMin=13 ErrMin= 2.27D-08
 ErrMax= 2.27D-08 EMaxC= 1.00D-01 BMatC= 1.56D-13 BMatP= 8.03D-12
 IDIUse=1 WtCom= 1.00D+00 WtEn= 0.00D+00
 Coeff-Com: -0.276D-06 0.920D-06 0.367D-05 0.320D-05-0.669D-06-0.170D-04
 Coeff-Com: -0.594D-03-0.126D-02-0.466D-02-0.540D-02-0.246D-02 0.105D+00
 Coeff-Com:  0.909D+00
 Coeff:     -0.276D-06 0.920D-06 0.367D-05 0.320D-05-0.669D-06-0.170D-04
 Coeff:     -0.594D-03-0.126D-02-0.466D-02-0.540D-02-0.246D-02 0.105D+00
 Coeff:      0.909D+00
 Gap=     0.199 Goal=   None    Shift=    0.000
 RMSDP=5.26D-09 MaxDP=3.80D-07 DE=-8.30D-12 OVMax= 1.84D-07

 SCF Done:  E(RB3LYP) =  -346.862086648     A.U. after   13 cycles
             Convg  =    0.5258D-08             -V/T =  2.0052
 KE= 3.450533411791D+02 PE=-1.491936053999D+03 EE= 4.576211088374D+02
 Leave Link  502 at Fri Sep 25 09:24:46 2015, MaxMem= 1610612736 cpu:     146.2
 (Enter /apps/Gausian/g09/l801.exe)
 ExpMin= 4.38D-02 ExpMax= 8.59D+03 ExpMxC= 1.30D+03 IAcc=3 IRadAn=         5 AccDes= 0.00D+00
 HarFok:  IExCor=  205 AccDes= 0.00D+00 IRadAn=         5 IDoV=-2
 ScaDFX=  1.000000  1.000000  1.000000  1.000000
 Largest valence mixing into a core orbital is  5.72D-05
 Largest core mixing into a valence orbital is  1.43D-05
 Range of M.O.s used for correlation:     9   224
 NBasis=   224 NAE=    29 NBE=    29 NFC=     8 NFV=     0
 NROrb=    216 NOA=    21 NOB=    21 NVA=   195 NVB=   195

 **** Warning!!: The largest alpha MO coefficient is  0.15201630D+03

 Leave Link  801 at Fri Sep 25 09:24:46 2015, MaxMem= 1610612736 cpu:       1.1
 (Enter /apps/Gausian/g09/l914.exe)
 RHF ground state
 MDV=  1610612736 DFT=T DoStab=F Mixed=T DoRPA=T DoScal=F NonHer=T
 Keep R1, R2, and R3 ints in memory in canonical form, NReq=1135473175.
 Symmetry not used in FoFDir.
 MinBra= 0 MaxBra= 2 Meth= 1.
 IRaf=       0 NMat=   1 IRICut=       1 DoRegI=T DoRafI=F ISym2E= 0 JSym2E=0.
 Making orbital integer symmetry assigments:
     8 initial guesses have been made.
 Convergence on wavefunction:    0.000001000000000
 Davidson Disk Diagonalization:  ConvIn= 1.00D-06 SkipCon=T Conv= 1.00D-06.
 Max sub-space:   200 roots to seek:     8 dimension of matrix:   8190
 Iteration     1 Dimension     8 NMult     8
 CISAX:  IP=  1 NPass=   1 NMax=     8.
 CISAX will form     8 AO SS matrices at one time.
 NMat=     8 NSing=     8.
 CISAX:  IP=  1 NPass=   1 NMax=     8.
 CISAX will form     8 AO SS matrices at one time.
 NMat=     8 NSing=     8.
 No map to state      2
 Excitation Energies [eV] at current iteration:
 Root      1 :     4.925255624592346
 Root      2 :     5.362414265732113
 Iteration     2 Dimension    12 NMult    12
 CISAX:  IP=  1 NPass=   1 NMax=     4.
 CISAX will form     4 AO SS matrices at one time.
 NMat=     4 NSing=     4.
 CISAX:  IP=  1 NPass=   1 NMax=     4.
 CISAX will form     4 AO SS matrices at one time.
 NMat=     4 NSing=     4.
 Root      1 not converged, maximum delta is    0.050002795302661
 Root      2 not converged, maximum delta is    0.025859421242041
 Excitation Energies [eV] at current iteration:
 Root      1 :     4.753135469975510   Change is   -0.172120154616836
 Root      2 :     5.341057028437296   Change is   -0.021357237294817
 Iteration     3 Dimension    16 NMult    16
 CISAX:  IP=  1 NPass=   1 NMax=     4.
 CISAX will form     4 AO SS matrices at one time.
 NMat=     4 NSing=     4.
 CISAX:  IP=  1 NPass=   1 NMax=     4.
 CISAX will form     4 AO SS matrices at one time.
 NMat=     4 NSing=     4.
 Root      1 not converged, maximum delta is    0.026822722765482
 Root      2 not converged, maximum delta is    0.007662161566713
 Excitation Energies [eV] at current iteration:
 Root      1 :     4.725008107352012   Change is   -0.028127362623498
 Root      2 :     5.340473518793151   Change is   -0.000583509644145
 Iteration     4 Dimension    20 NMult    20
 CISAX:  IP=  1 NPass=   1 NMax=     4.
 CISAX will form     4 AO SS matrices at one time.
 NMat=     4 NSing=     4.
 CISAX:  IP=  1 NPass=   1 NMax=     4.
 CISAX will form     4 AO SS matrices at one time.
 NMat=     4 NSing=     4.
 Root      1 not converged, maximum delta is    0.003481483157741
 Root      2 not converged, maximum delta is    0.002181845238412
 Excitation Energies [eV] at current iteration:
 Root      1 :     4.722481287097579   Change is   -0.002526820254433
 Root      2 :     5.340393038576435   Change is   -0.000080480216717
 Iteration     5 Dimension    24 NMult    24
 CISAX:  IP=  1 NPass=   1 NMax=     4.
 CISAX will form     4 AO SS matrices at one time.
 NMat=     4 NSing=     4.
 CISAX:  IP=  1 NPass=   1 NMax=     4.
 CISAX will form     4 AO SS matrices at one time.
 NMat=     4 NSing=     4.
 Root      1 not converged, maximum delta is    0.001216751770654
 Root      2 not converged, maximum delta is    0.000509754017611
 Excitation Energies [eV] at current iteration:
 Root      1 :     4.722287349910806   Change is   -0.000193937186773
 Root      2 :     5.340384367206974   Change is   -0.000008671369461
 Iteration     6 Dimension    28 NMult    28
 CISAX:  IP=  1 NPass=   1 NMax=     4.
 CISAX will form     4 AO SS matrices at one time.
 NMat=     4 NSing=     4.
 CISAX:  IP=  1 NPass=   1 NMax=     4.
 CISAX will form     4 AO SS matrices at one time.
 NMat=     4 NSing=     4.
 Root      1 not converged, maximum delta is    0.000349706006410
 Root      2 not converged, maximum delta is    0.000098504359836
 Excitation Energies [eV] at current iteration:
 Root      1 :     4.722259456983637   Change is   -0.000027892927168
 Root      2 :     5.340383592970288   Change is   -0.000000774236685
 Iteration     7 Dimension    32 NMult    32
 CISAX:  IP=  1 NPass=   1 NMax=     4.
 CISAX will form     4 AO SS matrices at one time.
 NMat=     4 NSing=     4.
 CISAX:  IP=  1 NPass=   1 NMax=     4.
 CISAX will form     4 AO SS matrices at one time.
 NMat=     4 NSing=     4.
 Root      1 not converged, maximum delta is    0.000052260431469
 Root      2 not converged, maximum delta is    0.000027219612250
 Excitation Energies [eV] at current iteration:
 Root      1 :     4.722257507751228   Change is   -0.000001949232409
 Root      2 :     5.340383443339813   Change is   -0.000000149630475
 Iteration     8 Dimension    36 NMult    36
 CISAX:  IP=  1 NPass=   1 NMax=     4.
 CISAX will form     4 AO SS matrices at one time.
 NMat=     4 NSing=     4.
 CISAX:  IP=  1 NPass=   1 NMax=     4.
 CISAX will form     4 AO SS matrices at one time.
 NMat=     4 NSing=     4.
 Root      1 not converged, maximum delta is    0.000036358423912
 Root      2 not converged, maximum delta is    0.000013969657140
 Excitation Energies [eV] at current iteration:
 Root      1 :     4.722257213526774   Change is   -0.000000294224454
 Root      2 :     5.340383417016418   Change is   -0.000000026323395
 Iteration     9 Dimension    40 NMult    40
 CISAX:  IP=  1 NPass=   1 NMax=     4.
 CISAX will form     4 AO SS matrices at one time.
 NMat=     4 NSing=     4.
 CISAX:  IP=  1 NPass=   1 NMax=     4.
 CISAX will form     4 AO SS matrices at one time.
 NMat=     4 NSing=     4.
 Root      1 not converged, maximum delta is    0.000012113407474
 Root      2 not converged, maximum delta is    0.000004473110553
 Excitation Energies [eV] at current iteration:
 Root      1 :     4.722257185311435   Change is   -0.000000028215338
 Root      2 :     5.340383412861938   Change is   -0.000000004154480
 Iteration    10 Dimension    44 NMult    44
 CISAX:  IP=  1 NPass=   1 NMax=     4.
 CISAX will form     4 AO SS matrices at one time.
 NMat=     4 NSing=     4.
 CISAX:  IP=  1 NPass=   1 NMax=     4.
 CISAX will form     4 AO SS matrices at one time.
 NMat=     4 NSing=     4.
 Root      1 not converged, maximum delta is    0.000005848561539
 Root      2 not converged, maximum delta is    0.000001802323037
 Excitation Energies [eV] at current iteration:
 Root      1 :     4.722257181575389   Change is   -0.000000003736046
 Root      2 :     5.340383412111341   Change is   -0.000000000750597
 Iteration    11 Dimension    48 NMult    48
 CISAX:  IP=  1 NPass=   1 NMax=     4.
 CISAX will form     4 AO SS matrices at one time.
 NMat=     4 NSing=     4.
 CISAX:  IP=  1 NPass=   1 NMax=     4.
 CISAX will form     4 AO SS matrices at one time.
 NMat=     4 NSing=     4.
 Root      1 has converged.
 Root      2 has converged.
 Excitation Energies [eV] at current iteration:
 Root      1 :     4.722257181127721   Change is   -0.000000000447669
 Root      2 :     5.340383411978850   Change is   -0.000000000132491
 Convergence achieved on expansion vectors.
 ***********************************************************************
 Excited states from <AA,BB:AA,BB> singles matrix:
 ***********************************************************************
 
 1PDM for each excited state written to RWF  633
 Ground to excited state transition densities written to RWF  633
 Ground to excited state transition electric dipole moments (Au):
       state          X           Y           Z        Dip. S.      Osc.
         1         0.5135     -0.3107     -0.0001      0.3602      0.0417
         2         0.0000      0.0000     -0.1432      0.0205      0.0027
 Ground to excited state transition velocity dipole moments (Au):
       state          X           Y           Z        Dip. S.      Osc.
         1        -0.0939      0.0570      0.0000      0.0121      0.0464
         2         0.0000      0.0000      0.0290      0.0008      0.0029
 Ground to excited state transition magnetic dipole moments (Au):
       state          X           Y           Z
         1         0.0000      0.0000      0.4396
         2        -0.3341      0.3009      0.0000
 Ground to excited state transition velocity quadrupole moments (Au):
       state          XX          YY          ZZ          XY          XZ          YZ
         1         0.0435     -0.0196      0.0232      0.0057      0.0000      0.0000
         2        -0.0001      0.0000      0.0001      0.0000     -0.3099     -0.2433
 <0|del|b> * <b|rxdel|0> + <0|del|b> * <b|delr+rdel|0>
 Rotatory Strengths (R) in cgs (10**-40 erg-esu-cm/Gauss)
       state          XX          YY          ZZ    R(velocity)
         1         0.0101      0.0000     -0.0110     -0.0003
         2         0.0018     -0.0015     -0.0009     -0.0002
 1/2[<0|r|b>*<b|rxdel|0> + (<0|rxdel|b>*<b|r|0>)*]
 Rotatory Strengths (R) in cgs (10**-40 erg-esu-cm/Gauss)
       state          XX          YY          ZZ     R(length)
         1        -0.0171     -0.0039      0.0202     -0.0003
         2        -0.0060      0.0016      0.0039     -0.0002
  1/2[<0|del|b>*<b|r|0> + (<0|r|b>*<b|del|0>)*] (Au)
       state          X           Y           Z        Dip. S.   Osc.(frdel)
         1        -0.0482     -0.0177      0.0000      0.0659      0.0440
         2         0.0000      0.0000     -0.0041      0.0041      0.0028

 Excitation energies and oscillator strengths:
 
 Excited state symmetry could not be determined.
 Excited State   1:      Singlet-?Sym    4.7223 eV  262.55 nm  f=0.0417  <S**2>=0.000
      28 -> 31         0.26712
      29 -> 30         0.64618
 This state for optimization and/or second-order correction.
 Total Energy, E(TD-HF/TD-KS) =  -346.688546882    
 Copying the excited state density for this state as the 1-particle RhoCI density.
 
 Excited state symmetry could not be determined.
 Excited State   2:      Singlet-?Sym    5.3404 eV  232.16 nm  f=0.0027  <S**2>=0.000
      29 -> 32         0.69877
 SavETr:  write IOETrn=   770 NScale= 10 NData=  16 NLR=1 LETran=      46.
 The selected state is a singlet
 CISAX:  IP=  1 NPass=   1 NMax=     1.
 CISAX will form     1 AO SS matrices at one time.
 NMat=     1 NSing=     1.
 CISAX:  IP=  1 NPass=   1 NMax=     1.
 CISAX will form     1 AO SS matrices at one time.
 NMat=     1 NSing=     1.
 Leave Link  914 at Fri Sep 25 09:26:23 2015, MaxMem= 1610612736 cpu:     772.4
 (Enter /apps/Gausian/g09/l1002.exe)
 Minotr:  Closed shell wavefunction.
          Computing CIS/TD-HF/TD-KS derivatives.
          Using Z-Vector for PSCF gradient.
          Skipping F1 and S1 gradient terms here.
          IDoAtm=1111111111111111
          Frozen-core window.
          Direct CPHF calculation.
          Differentiating once with respect to electric field.
                with respect to dipole field.
          Differentiating once with respect to nuclear coordinates.
          Requested convergence is 1.0D-10 RMS, and 1.0D-09 maximum.
          NewPWx=F KeepS1=T KeepF1=T KeepIn=T MapXYZ=F SortEE=F KeepMc=T.
          MDV=    1610612572 using IRadAn=       0.
 Generate precomputed XC quadrature information.
          Keep R1 ints in memory in canonical form, NReq=366098929.
 Symmetry not used in FoFDir.
 MinBra= 0 MaxBra= 2 Meth= 1.
 IRaf=       0 NMat=   1 IRICut=       1 DoRegI=T DoRafI=F ISym2E= 0 JSym2E=0.
          Solving linear equations separately, MaxMat=       0.
          There are     1 degrees of freedom in the 1st order CPHF.  IDoFFX=0.
 LinEq1:  Iter=  0 NonCon=     1 RMS=9.79D-03 Max=2.81D-01
 AX will form     1 AO Fock derivatives at one time.
 LinEq1:  Iter=  1 NonCon=     1 RMS=3.69D-03 Max=9.24D-02
 LinEq1:  Iter=  2 NonCon=     1 RMS=3.18D-03 Max=1.04D-01
 LinEq1:  Iter=  3 NonCon=     1 RMS=1.22D-03 Max=2.50D-02
 LinEq1:  Iter=  4 NonCon=     1 RMS=9.07D-04 Max=2.79D-02
 LinEq1:  Iter=  5 NonCon=     1 RMS=3.31D-04 Max=5.06D-03
 LinEq1:  Iter=  6 NonCon=     1 RMS=1.83D-04 Max=2.53D-03
 LinEq1:  Iter=  7 NonCon=     1 RMS=1.10D-04 Max=3.83D-03
 LinEq1:  Iter=  8 NonCon=     1 RMS=7.49D-05 Max=1.41D-03
 LinEq1:  Iter=  9 NonCon=     1 RMS=1.94D-05 Max=2.43D-04
 LinEq1:  Iter= 10 NonCon=     1 RMS=1.12D-05 Max=2.35D-04
 LinEq1:  Iter= 11 NonCon=     1 RMS=3.54D-06 Max=6.28D-05
 LinEq1:  Iter= 12 NonCon=     1 RMS=2.29D-06 Max=4.48D-05
 LinEq1:  Iter= 13 NonCon=     1 RMS=8.26D-07 Max=1.56D-05
 LinEq1:  Iter= 14 NonCon=     1 RMS=2.35D-07 Max=5.57D-06
 LinEq1:  Iter= 15 NonCon=     1 RMS=9.89D-08 Max=1.83D-06
 LinEq1:  Iter= 16 NonCon=     1 RMS=4.72D-08 Max=7.37D-07
 LinEq1:  Iter= 17 NonCon=     1 RMS=8.91D-09 Max=1.86D-07
 LinEq1:  Iter= 18 NonCon=     1 RMS=1.84D-09 Max=4.78D-08
 LinEq1:  Iter= 19 NonCon=     1 RMS=3.71D-10 Max=1.25D-08
 LinEq1:  Iter= 20 NonCon=     0 RMS=5.41D-11 Max=6.25D-10
 Linear equations converged to 1.000D-10 1.000D-09 after    20 iterations.
 End of Minotr Frequency-dependent properties file   721 does not exist.
 End of Minotr Frequency-dependent properties file   722 does not exist.
 Leave Link 1002 at Fri Sep 25 09:26:55 2015, MaxMem= 1610612736 cpu:     250.6
 (Enter /apps/Gausian/g09/l601.exe)
 Copying SCF densities to generalized density rwf, IOpCl= 0 IROHF=0.

 **********************************************************************

            Population analysis using the SCF density.

 **********************************************************************

 Alpha  occ. eigenvalues --  -19.15560 -10.24225 -10.23078 -10.18560 -10.18389
 Alpha  occ. eigenvalues --  -10.18162 -10.17795 -10.17353  -1.07453  -0.84391
 Alpha  occ. eigenvalues --   -0.76041  -0.74644  -0.69771  -0.61587  -0.59068
 Alpha  occ. eigenvalues --   -0.53886  -0.49018  -0.48249  -0.47706  -0.45327
 Alpha  occ. eigenvalues --   -0.43169  -0.41795  -0.38157  -0.37266  -0.36147
 Alpha  occ. eigenvalues --   -0.33311  -0.32557  -0.25620  -0.22329
 Alpha virt. eigenvalues --   -0.02419  -0.00361   0.00039   0.01460   0.02273
 Alpha virt. eigenvalues --    0.03461   0.03894   0.04453   0.04999   0.06904
 Alpha virt. eigenvalues --    0.07194   0.07574   0.08883   0.09040   0.10806
 Alpha virt. eigenvalues --    0.11507   0.12431   0.12949   0.12985   0.14258
 Alpha virt. eigenvalues --    0.14917   0.15093   0.15114   0.15476   0.17231
 Alpha virt. eigenvalues --    0.17718   0.18151   0.19644   0.20323   0.20435
 Alpha virt. eigenvalues --    0.20925   0.21019   0.21826   0.22542   0.23274
 Alpha virt. eigenvalues --    0.24053   0.24328   0.25302   0.26019   0.27222
 Alpha virt. eigenvalues --    0.27400   0.28260   0.30220   0.31282   0.33056
 Alpha virt. eigenvalues --    0.34159   0.35162   0.37312   0.38637   0.42384
 Alpha virt. eigenvalues --    0.44041   0.47575   0.49434   0.52512   0.52917
 Alpha virt. eigenvalues --    0.53380   0.53809   0.54357   0.57752   0.57835
 Alpha virt. eigenvalues --    0.59326   0.60376   0.62173   0.62515   0.63046
 Alpha virt. eigenvalues --    0.64509   0.66126   0.67644   0.68727   0.70022
 Alpha virt. eigenvalues --    0.71855   0.73070   0.74375   0.77067   0.79303
 Alpha virt. eigenvalues --    0.82524   0.83410   0.83829   0.84497   0.85202
 Alpha virt. eigenvalues --    0.86713   0.89729   0.94525   0.98415   0.98935
 Alpha virt. eigenvalues --    0.99933   1.00471   1.01620   1.02736   1.06615
 Alpha virt. eigenvalues --    1.07057   1.09318   1.11842   1.14337   1.26908
 Alpha virt. eigenvalues --    1.29159   1.29336   1.35157   1.42420   1.42847
 Alpha virt. eigenvalues --    1.43748   1.48416   1.50275   1.52102   1.54846
 Alpha virt. eigenvalues --    1.55806   1.56000   1.56567   1.58705   1.62073
 Alpha virt. eigenvalues --    1.64907   1.67624   1.69038   1.69177   1.70238
 Alpha virt. eigenvalues --    1.74595   1.75983   1.77362   1.78665   1.82787
 Alpha virt. eigenvalues --    1.87523   1.88992   1.90508   1.92606   1.94445
 Alpha virt. eigenvalues --    1.95025   1.97383   2.00072   2.02018   2.03954
 Alpha virt. eigenvalues --    2.06372   2.07230   2.10687   2.16507   2.25349
 Alpha virt. eigenvalues --    2.27501   2.29537   2.37156   2.38741   2.39103
 Alpha virt. eigenvalues --    2.43099   2.45231   2.46896   2.50495   2.53049
 Alpha virt. eigenvalues --    2.57008   2.62407   2.63688   2.65377   2.69004
 Alpha virt. eigenvalues --    2.70923   2.73867   2.74994   2.76270   2.76413
 Alpha virt. eigenvalues --    2.78669   2.78692   2.81407   2.85634   2.86131
 Alpha virt. eigenvalues --    2.88106   2.88592   3.03391   3.05080   3.08006
 Alpha virt. eigenvalues --    3.10080   3.11835   3.25335   3.27097   3.31522
 Alpha virt. eigenvalues --    3.37847   3.45579   3.47675   3.56961   3.60612
 Alpha virt. eigenvalues --    3.77357   3.81766   3.99331   4.02197   4.09317
 Alpha virt. eigenvalues --    4.14593   4.15738   4.22058   4.79135   5.01407
 Alpha virt. eigenvalues --    5.37443   5.78739  23.62407  23.88480  23.90469
 Alpha virt. eigenvalues --   23.92293  24.00289  24.01162  24.10902  49.95191
          Condensed to atoms (all electrons):
              1          2          3          4          5          6
     1  C    5.080748   0.394722   0.035534   0.007373   0.520733  -0.003208
     2  H    0.394722   0.534692   0.007003   0.000058   0.000614  -0.007719
     3  C    0.035534   0.007003   7.240354   0.414810   0.002208  -0.009857
     4  H    0.007373   0.000058   0.414810   0.538150  -0.006806  -0.000272
     5  C    0.520733   0.000614   0.002208  -0.006806   4.929743   0.380415
     6  H   -0.003208  -0.007719  -0.009857  -0.000272   0.380415   0.544045
     7  C   -0.040399  -0.065123  -1.926719  -0.057152   0.036491  -0.031836
     8  H    0.000195  -0.005694  -0.016812  -0.000081  -0.004769  -0.000229
     9  C    0.052763  -0.010406   0.382448   0.008783   0.559549  -0.011094
    10  H   -0.000827  -0.000229  -0.003960  -0.005909  -0.015398  -0.007425
    11  C    0.094802   0.020819  -0.395429  -0.006943  -0.328637   0.023128
    12  O    0.016874  -0.000902   0.081237  -0.019455  -0.008534   0.000254
    13  C    0.001746   0.000472  -0.233137   0.003855  -0.004878   0.000373
    14  H    0.000667  -0.000001  -0.016143   0.000415  -0.000316   0.000000
    15  H    0.000039   0.000000   0.031363  -0.000365   0.000640   0.000001
    16  H    0.000039   0.000000   0.031356  -0.000366   0.000640   0.000001
              7          8          9         10         11         12
     1  C   -0.040399   0.000195   0.052763  -0.000827   0.094802   0.016874
     2  H   -0.065123  -0.005694  -0.010406  -0.000229   0.020819  -0.000902
     3  C   -1.926719  -0.016812   0.382448  -0.003960  -0.395429   0.081237
     4  H   -0.057152  -0.000081   0.008783  -0.005909  -0.006943  -0.019455
     5  C    0.036491  -0.004769   0.559549  -0.015398  -0.328637  -0.008534
     6  H   -0.031836  -0.000229  -0.011094  -0.007425   0.023128   0.000254
     7  C    8.798601   0.343857  -0.135091  -0.014587  -0.295389  -0.560629
     8  H    0.343857   0.520926  -0.002759   0.000052   0.042225  -0.007495
     9  C   -0.135091  -0.002759   5.581350   0.365261  -0.364681   0.033527
    10  H   -0.014587   0.000052   0.365261   0.536971   0.014642  -0.000584
    11  C   -0.295389   0.042225  -0.364681   0.014642   7.119593   0.400197
    12  O   -0.560629  -0.007495   0.033527  -0.000584   0.400197   8.205924
    13  C    0.087261   0.000930  -0.082416   0.001667   0.042833   0.161296
    14  H    0.010077  -0.000071   0.000623  -0.000003   0.024928  -0.063986
    15  H   -0.009338   0.000055   0.004886   0.000025  -0.034164  -0.033246
    16  H   -0.009334   0.000055   0.004881   0.000025  -0.034157  -0.033241
             13         14         15         16
     1  C    0.001746   0.000667   0.000039   0.000039
     2  H    0.000472  -0.000001   0.000000   0.000000
     3  C   -0.233137  -0.016143   0.031363   0.031356
     4  H    0.003855   0.000415  -0.000365  -0.000366
     5  C   -0.004878  -0.000316   0.000640   0.000640
     6  H    0.000373   0.000000   0.000001   0.000001
     7  C    0.087261   0.010077  -0.009338  -0.009334
     8  H    0.000930  -0.000071   0.000055   0.000055
     9  C   -0.082416   0.000623   0.004886   0.004881
    10  H    0.001667  -0.000003   0.000025   0.000025
    11  C    0.042833   0.024928  -0.034164  -0.034157
    12  O    0.161296  -0.063986  -0.033246  -0.033241
    13  C    5.016413   0.413904   0.408260   0.408258
    14  H    0.413904   0.523064  -0.026629  -0.026628
    15  H    0.408260  -0.026629   0.564753  -0.050727
    16  H    0.408258  -0.026628  -0.050727   0.564754
 Mulliken atomic charges:
              1
     1  C   -0.161802
     2  H    0.131693
     3  C    0.375744
     4  H    0.123908
     5  C   -0.061694
     6  H    0.123424
     7  C   -0.130691
     8  H    0.129614
     9  C   -0.387624
    10  H    0.130280
    11  C   -0.323766
    12  O   -0.171239
    13  C   -0.226837
    14  H    0.160098
    15  H    0.144447
    16  H    0.144444
 Sum of Mulliken atomic charges =   0.00000
 Mulliken charges with hydrogens summed into heavy atoms:
              1
     1  C   -0.030109
     3  C    0.499652
     5  C    0.061730
     7  C   -0.001077
     9  C   -0.257344
    11  C   -0.323766
    12  O   -0.171239
    13  C    0.222152
 Sum of Mulliken charges with hydrogens summed into heavy atoms =   0.00000
 Electronic spatial extent (au):  <R**2>=           1156.6561
 Charge=              0.0000 electrons
 Dipole moment (field-independent basis, Debye):
    X=             -1.4900    Y=              0.0418    Z=              0.0002  Tot=              1.4906
 Quadrupole moment (field-independent basis, Debye-Ang):
   XX=            -37.9331   YY=            -45.7763   ZZ=            -52.2142
   XY=              3.0986   XZ=             -0.0018   YZ=             -0.0002
 Traceless Quadrupole moment (field-independent basis, Debye-Ang):
   XX=              7.3748   YY=             -0.4684   ZZ=             -6.9064
   XY=              3.0986   XZ=             -0.0018   YZ=             -0.0002
 Octapole moment (field-independent basis, Debye-Ang**2):
  XXX=             62.7429  YYY=             85.9291  ZZZ=             -0.0183  XYY=             17.6628
  XXY=             12.1053  XXZ=             -0.0037  XZZ=             25.5826  YZZ=             26.5894
  YYZ=             -0.0051  XYZ=              0.0017
 Hexadecapole moment (field-independent basis, Debye-Ang**3):
 XXXX=           -659.3073 YYYY=           -720.5825 ZZZZ=            -68.7317 XXXY=           -148.8942
 XXXZ=              0.0321 YYYX=           -168.8228 YYYZ=              0.0244 ZZZX=              0.0453
 ZZZY=              0.0241 XXYY=           -196.6099 XXZZ=           -138.5984 YYZZ=           -144.4319
 XXYZ=              0.0030 YYXZ=              0.0078 ZZXY=            -64.2465
 N-N= 3.423995173346D+02 E-N=-1.491936053392D+03  KE= 3.450533411791D+02
 No NMR shielding tensors so no spin-rotation constants.
 Leave Link  601 at Fri Sep 25 09:26:55 2015, MaxMem= 1610612736 cpu:       1.4
 (Enter /apps/Gausian/g09/l701.exe)
 Compute integral first derivatives.
 ... and contract with generalized density number  6.
 Leave Link  701 at Fri Sep 25 09:26:55 2015, MaxMem= 1610612736 cpu:       1.4
 (Enter /apps/Gausian/g09/l702.exe)
 L702 exits ... SP integral derivatives will be done elsewhere.
 Leave Link  702 at Fri Sep 25 09:26:55 2015, MaxMem= 1610612736 cpu:       0.1
 (Enter /apps/Gausian/g09/l703.exe)
 Compute integral first derivatives, UseDBF=F ICtDFT=           0.
 Integral derivatives from FoFDir, PRISM(SPDF).
 Calling FoFJK, ICntrl=      5127 FMM=F ISym2X=0 I1Cent= 0 IOpClX= 0 NMat=1 NMatS=1 NMatT=0.
 FoFCou: FMM=F IPFlag=           0 FMFlag=      100000 FMFlg1=         800
         NFxFlg=           0 DoJE=F BraDBF=F KetDBF=F FulRan=T
         Omega=  0.000000  0.000000  1.000000  0.000000  0.000000 ICntrl=    5127 IOpCl=  0
         NMat0=    1 NMatS0=    1 NMatT0=    0 NMatD0=    1 NMtDS0=    0 NMtDT0=    0
         I1Cent=           0 NGrid=           0.
 Symmetry not used in FoFCou.
 Leave Link  703 at Fri Sep 25 09:27:01 2015, MaxMem= 1610612736 cpu:      44.2
 (Enter /apps/Gausian/g09/l716.exe)
 Dipole        =-1.00041567D+00-3.67981313D-01 1.09750645D-04
 -------------------------------------------------------------------
 Center     Atomic                   Forces (Hartrees/Bohr)
 Number     Number              X              Y              Z
 -------------------------------------------------------------------
      1        6          -0.000003464    0.000007125    0.000000072
      2        1          -0.000001928    0.000011696    0.000000013
      3        6          -0.000000817   -0.000007195    0.000000240
      4        1          -0.000002670   -0.000005062   -0.000000105
      5        6          -0.000006557    0.000004462   -0.000000014
      6        1          -0.000009427    0.000007000    0.000000017
      7        6           0.000002413    0.000004357   -0.000000124
      8        1           0.000005896    0.000006953   -0.000000006
      9        6          -0.000005939    0.000003185   -0.000000117
     10        1          -0.000010005   -0.000002168    0.000000001
     11        6           0.000001266    0.000003343    0.000000268
     12        8           0.000005969   -0.000001713   -0.000000492
     13        6           0.000006881   -0.000007606    0.000001176
     14        1           0.000009201   -0.000007693   -0.000000013
     15        1           0.000004740   -0.000008451   -0.000000387
     16        1           0.000004440   -0.000008234   -0.000000529
 -------------------------------------------------------------------
 Cartesian Forces:  Max     0.000011696 RMS     0.000005065
 Leave Link  716 at Fri Sep 25 09:27:01 2015, MaxMem= 1610612736 cpu:       0.6
 (Enter /apps/Gausian/g09/l103.exe)

 GradGradGradGradGradGradGradGradGradGradGradGradGradGradGradGradGradGrad
 Berny optimization.
 Internal  Forces:  Max     0.000002514 RMS     0.000000529
 Search for a local minimum.
 Step number   1 out of a maximum of  100
 All quantities printed in internal units (Hartrees-Bohrs-Radians)
 RMS Force = .52918D-06 SwitMx=.10000D-02 MixMth= 2
 Mixed Optimization -- En-DIIS/RFO-DIIS
 Second derivative matrix not updated -- first step.
 The second derivative matrix:
                          R1        R2        R3        R4        R5
           R1           0.35834
           R2           0.00000   0.43612
           R3           0.00000   0.00000   0.41764
           R4           0.00000   0.00000   0.00000   0.36034
           R5           0.00000   0.00000   0.00000   0.00000   0.41581
           R6           0.00000   0.00000   0.00000   0.00000   0.00000
           R7           0.00000   0.00000   0.00000   0.00000   0.00000
           R8           0.00000   0.00000   0.00000   0.00000   0.00000
           R9           0.00000   0.00000   0.00000   0.00000   0.00000
           R10          0.00000   0.00000   0.00000   0.00000   0.00000
           R11          0.00000   0.00000   0.00000   0.00000   0.00000
           R12          0.00000   0.00000   0.00000   0.00000   0.00000
           R13          0.00000   0.00000   0.00000   0.00000   0.00000
           R14          0.00000   0.00000   0.00000   0.00000   0.00000
           R15          0.00000   0.00000   0.00000   0.00000   0.00000
           R16          0.00000   0.00000   0.00000   0.00000   0.00000
           A1           0.00000   0.00000   0.00000   0.00000   0.00000
           A2           0.00000   0.00000   0.00000   0.00000   0.00000
           A3           0.00000   0.00000   0.00000   0.00000   0.00000
           A4           0.00000   0.00000   0.00000   0.00000   0.00000
           A5           0.00000   0.00000   0.00000   0.00000   0.00000
           A6           0.00000   0.00000   0.00000   0.00000   0.00000
           A7           0.00000   0.00000   0.00000   0.00000   0.00000
           A8           0.00000   0.00000   0.00000   0.00000   0.00000
           A9           0.00000   0.00000   0.00000   0.00000   0.00000
           A10          0.00000   0.00000   0.00000   0.00000   0.00000
           A11          0.00000   0.00000   0.00000   0.00000   0.00000
           A12          0.00000   0.00000   0.00000   0.00000   0.00000
           A13          0.00000   0.00000   0.00000   0.00000   0.00000
           A14          0.00000   0.00000   0.00000   0.00000   0.00000
           A15          0.00000   0.00000   0.00000   0.00000   0.00000
           A16          0.00000   0.00000   0.00000   0.00000   0.00000
           A17          0.00000   0.00000   0.00000   0.00000   0.00000
           A18          0.00000   0.00000   0.00000   0.00000   0.00000
           A19          0.00000   0.00000   0.00000   0.00000   0.00000
           A20          0.00000   0.00000   0.00000   0.00000   0.00000
           A21          0.00000   0.00000   0.00000   0.00000   0.00000
           A22          0.00000   0.00000   0.00000   0.00000   0.00000
           A23          0.00000   0.00000   0.00000   0.00000   0.00000
           A24          0.00000   0.00000   0.00000   0.00000   0.00000
           A25          0.00000   0.00000   0.00000   0.00000   0.00000
           D1           0.00000   0.00000   0.00000   0.00000   0.00000
           D2           0.00000   0.00000   0.00000   0.00000   0.00000
           D3           0.00000   0.00000   0.00000   0.00000   0.00000
           D4           0.00000   0.00000   0.00000   0.00000   0.00000
           D5           0.00000   0.00000   0.00000   0.00000   0.00000
           D6           0.00000   0.00000   0.00000   0.00000   0.00000
           D7           0.00000   0.00000   0.00000   0.00000   0.00000
           D8           0.00000   0.00000   0.00000   0.00000   0.00000
           D9           0.00000   0.00000   0.00000   0.00000   0.00000
           D10          0.00000   0.00000   0.00000   0.00000   0.00000
           D11          0.00000   0.00000   0.00000   0.00000   0.00000
           D12          0.00000   0.00000   0.00000   0.00000   0.00000
           D13          0.00000   0.00000   0.00000   0.00000   0.00000
           D14          0.00000   0.00000   0.00000   0.00000   0.00000
           D15          0.00000   0.00000   0.00000   0.00000   0.00000
           D16          0.00000   0.00000   0.00000   0.00000   0.00000
           D17          0.00000   0.00000   0.00000   0.00000   0.00000
           D18          0.00000   0.00000   0.00000   0.00000   0.00000
           D19          0.00000   0.00000   0.00000   0.00000   0.00000
           D20          0.00000   0.00000   0.00000   0.00000   0.00000
           D21          0.00000   0.00000   0.00000   0.00000   0.00000
           D22          0.00000   0.00000   0.00000   0.00000   0.00000
           D23          0.00000   0.00000   0.00000   0.00000   0.00000
           D24          0.00000   0.00000   0.00000   0.00000   0.00000
           D25          0.00000   0.00000   0.00000   0.00000   0.00000
           D26          0.00000   0.00000   0.00000   0.00000   0.00000
           D27          0.00000   0.00000   0.00000   0.00000   0.00000
           D28          0.00000   0.00000   0.00000   0.00000   0.00000
           D29          0.00000   0.00000   0.00000   0.00000   0.00000
                          R6        R7        R8        R9        R10
           R6           0.42298
           R7           0.00000   0.35431
           R8           0.00000   0.00000   0.42773
           R9           0.00000   0.00000   0.00000   0.35905
           R10          0.00000   0.00000   0.00000   0.00000   0.41817
           R11          0.00000   0.00000   0.00000   0.00000   0.00000
           R12          0.00000   0.00000   0.00000   0.00000   0.00000
           R13          0.00000   0.00000   0.00000   0.00000   0.00000
           R14          0.00000   0.00000   0.00000   0.00000   0.00000
           R15          0.00000   0.00000   0.00000   0.00000   0.00000
           R16          0.00000   0.00000   0.00000   0.00000   0.00000
           A1           0.00000   0.00000   0.00000   0.00000   0.00000
           A2           0.00000   0.00000   0.00000   0.00000   0.00000
           A3           0.00000   0.00000   0.00000   0.00000   0.00000
           A4           0.00000   0.00000   0.00000   0.00000   0.00000
           A5           0.00000   0.00000   0.00000   0.00000   0.00000
           A6           0.00000   0.00000   0.00000   0.00000   0.00000
           A7           0.00000   0.00000   0.00000   0.00000   0.00000
           A8           0.00000   0.00000   0.00000   0.00000   0.00000
           A9           0.00000   0.00000   0.00000   0.00000   0.00000
           A10          0.00000   0.00000   0.00000   0.00000   0.00000
           A11          0.00000   0.00000   0.00000   0.00000   0.00000
           A12          0.00000   0.00000   0.00000   0.00000   0.00000
           A13          0.00000   0.00000   0.00000   0.00000   0.00000
           A14          0.00000   0.00000   0.00000   0.00000   0.00000
           A15          0.00000   0.00000   0.00000   0.00000   0.00000
           A16          0.00000   0.00000   0.00000   0.00000   0.00000
           A17          0.00000   0.00000   0.00000   0.00000   0.00000
           A18          0.00000   0.00000   0.00000   0.00000   0.00000
           A19          0.00000   0.00000   0.00000   0.00000   0.00000
           A20          0.00000   0.00000   0.00000   0.00000   0.00000
           A21          0.00000   0.00000   0.00000   0.00000   0.00000
           A22          0.00000   0.00000   0.00000   0.00000   0.00000
           A23          0.00000   0.00000   0.00000   0.00000   0.00000
           A24          0.00000   0.00000   0.00000   0.00000   0.00000
           A25          0.00000   0.00000   0.00000   0.00000   0.00000
           D1           0.00000   0.00000   0.00000   0.00000   0.00000
           D2           0.00000   0.00000   0.00000   0.00000   0.00000
           D3           0.00000   0.00000   0.00000   0.00000   0.00000
           D4           0.00000   0.00000   0.00000   0.00000   0.00000
           D5           0.00000   0.00000   0.00000   0.00000   0.00000
           D6           0.00000   0.00000   0.00000   0.00000   0.00000
           D7           0.00000   0.00000   0.00000   0.00000   0.00000
           D8           0.00000   0.00000   0.00000   0.00000   0.00000
           D9           0.00000   0.00000   0.00000   0.00000   0.00000
           D10          0.00000   0.00000   0.00000   0.00000   0.00000
           D11          0.00000   0.00000   0.00000   0.00000   0.00000
           D12          0.00000   0.00000   0.00000   0.00000   0.00000
           D13          0.00000   0.00000   0.00000   0.00000   0.00000
           D14          0.00000   0.00000   0.00000   0.00000   0.00000
           D15          0.00000   0.00000   0.00000   0.00000   0.00000
           D16          0.00000   0.00000   0.00000   0.00000   0.00000
           D17          0.00000   0.00000   0.00000   0.00000   0.00000
           D18          0.00000   0.00000   0.00000   0.00000   0.00000
           D19          0.00000   0.00000   0.00000   0.00000   0.00000
           D20          0.00000   0.00000   0.00000   0.00000   0.00000
           D21          0.00000   0.00000   0.00000   0.00000   0.00000
           D22          0.00000   0.00000   0.00000   0.00000   0.00000
           D23          0.00000   0.00000   0.00000   0.00000   0.00000
           D24          0.00000   0.00000   0.00000   0.00000   0.00000
           D25          0.00000   0.00000   0.00000   0.00000   0.00000
           D26          0.00000   0.00000   0.00000   0.00000   0.00000
           D27          0.00000   0.00000   0.00000   0.00000   0.00000
           D28          0.00000   0.00000   0.00000   0.00000   0.00000
           D29          0.00000   0.00000   0.00000   0.00000   0.00000
                          R11       R12       R13       R14       R15
           R11          0.35837
           R12          0.00000   0.55158
           R13          0.00000   0.00000   0.41098
           R14          0.00000   0.00000   0.00000   0.35094
           R15          0.00000   0.00000   0.00000   0.00000   0.34513
           R16          0.00000   0.00000   0.00000   0.00000   0.00000
           A1           0.00000   0.00000   0.00000   0.00000   0.00000
           A2           0.00000   0.00000   0.00000   0.00000   0.00000
           A3           0.00000   0.00000   0.00000   0.00000   0.00000
           A4           0.00000   0.00000   0.00000   0.00000   0.00000
           A5           0.00000   0.00000   0.00000   0.00000   0.00000
           A6           0.00000   0.00000   0.00000   0.00000   0.00000
           A7           0.00000   0.00000   0.00000   0.00000   0.00000
           A8           0.00000   0.00000   0.00000   0.00000   0.00000
           A9           0.00000   0.00000   0.00000   0.00000   0.00000
           A10          0.00000   0.00000   0.00000   0.00000   0.00000
           A11          0.00000   0.00000   0.00000   0.00000   0.00000
           A12          0.00000   0.00000   0.00000   0.00000   0.00000
           A13          0.00000   0.00000   0.00000   0.00000   0.00000
           A14          0.00000   0.00000   0.00000   0.00000   0.00000
           A15          0.00000   0.00000   0.00000   0.00000   0.00000
           A16          0.00000   0.00000   0.00000   0.00000   0.00000
           A17          0.00000   0.00000   0.00000   0.00000   0.00000
           A18          0.00000   0.00000   0.00000   0.00000   0.00000
           A19          0.00000   0.00000   0.00000   0.00000   0.00000
           A20          0.00000   0.00000   0.00000   0.00000   0.00000
           A21          0.00000   0.00000   0.00000   0.00000   0.00000
           A22          0.00000   0.00000   0.00000   0.00000   0.00000
           A23          0.00000   0.00000   0.00000   0.00000   0.00000
           A24          0.00000   0.00000   0.00000   0.00000   0.00000
           A25          0.00000   0.00000   0.00000   0.00000   0.00000
           D1           0.00000   0.00000   0.00000   0.00000   0.00000
           D2           0.00000   0.00000   0.00000   0.00000   0.00000
           D3           0.00000   0.00000   0.00000   0.00000   0.00000
           D4           0.00000   0.00000   0.00000   0.00000   0.00000
           D5           0.00000   0.00000   0.00000   0.00000   0.00000
           D6           0.00000   0.00000   0.00000   0.00000   0.00000
           D7           0.00000   0.00000   0.00000   0.00000   0.00000
           D8           0.00000   0.00000   0.00000   0.00000   0.00000
           D9           0.00000   0.00000   0.00000   0.00000   0.00000
           D10          0.00000   0.00000   0.00000   0.00000   0.00000
           D11          0.00000   0.00000   0.00000   0.00000   0.00000
           D12          0.00000   0.00000   0.00000   0.00000   0.00000
           D13          0.00000   0.00000   0.00000   0.00000   0.00000
           D14          0.00000   0.00000   0.00000   0.00000   0.00000
           D15          0.00000   0.00000   0.00000   0.00000   0.00000
           D16          0.00000   0.00000   0.00000   0.00000   0.00000
           D17          0.00000   0.00000   0.00000   0.00000   0.00000
           D18          0.00000   0.00000   0.00000   0.00000   0.00000
           D19          0.00000   0.00000   0.00000   0.00000   0.00000
           D20          0.00000   0.00000   0.00000   0.00000   0.00000
           D21          0.00000   0.00000   0.00000   0.00000   0.00000
           D22          0.00000   0.00000   0.00000   0.00000   0.00000
           D23          0.00000   0.00000   0.00000   0.00000   0.00000
           D24          0.00000   0.00000   0.00000   0.00000   0.00000
           D25          0.00000   0.00000   0.00000   0.00000   0.00000
           D26          0.00000   0.00000   0.00000   0.00000   0.00000
           D27          0.00000   0.00000   0.00000   0.00000   0.00000
           D28          0.00000   0.00000   0.00000   0.00000   0.00000
           D29          0.00000   0.00000   0.00000   0.00000   0.00000
                          R16       A1        A2        A3        A4
           R16          0.34514
           A1           0.00000   0.16000
           A2           0.00000   0.00000   0.16000
           A3           0.00000   0.00000   0.00000   0.25000
           A4           0.00000   0.00000   0.00000   0.00000   0.16000
           A5           0.00000   0.00000   0.00000   0.00000   0.00000
           A6           0.00000   0.00000   0.00000   0.00000   0.00000
           A7           0.00000   0.00000   0.00000   0.00000   0.00000
           A8           0.00000   0.00000   0.00000   0.00000   0.00000
           A9           0.00000   0.00000   0.00000   0.00000   0.00000
           A10          0.00000   0.00000   0.00000   0.00000   0.00000
           A11          0.00000   0.00000   0.00000   0.00000   0.00000
           A12          0.00000   0.00000   0.00000   0.00000   0.00000
           A13          0.00000   0.00000   0.00000   0.00000   0.00000
           A14          0.00000   0.00000   0.00000   0.00000   0.00000
           A15          0.00000   0.00000   0.00000   0.00000   0.00000
           A16          0.00000   0.00000   0.00000   0.00000   0.00000
           A17          0.00000   0.00000   0.00000   0.00000   0.00000
           A18          0.00000   0.00000   0.00000   0.00000   0.00000
           A19          0.00000   0.00000   0.00000   0.00000   0.00000
           A20          0.00000   0.00000   0.00000   0.00000   0.00000
           A21          0.00000   0.00000   0.00000   0.00000   0.00000
           A22          0.00000   0.00000   0.00000   0.00000   0.00000
           A23          0.00000   0.00000   0.00000   0.00000   0.00000
           A24          0.00000   0.00000   0.00000   0.00000   0.00000
           A25          0.00000   0.00000   0.00000   0.00000   0.00000
           D1           0.00000   0.00000   0.00000   0.00000   0.00000
           D2           0.00000   0.00000   0.00000   0.00000   0.00000
           D3           0.00000   0.00000   0.00000   0.00000   0.00000
           D4           0.00000   0.00000   0.00000   0.00000   0.00000
           D5           0.00000   0.00000   0.00000   0.00000   0.00000
           D6           0.00000   0.00000   0.00000   0.00000   0.00000
           D7           0.00000   0.00000   0.00000   0.00000   0.00000
           D8           0.00000   0.00000   0.00000   0.00000   0.00000
           D9           0.00000   0.00000   0.00000   0.00000   0.00000
           D10          0.00000   0.00000   0.00000   0.00000   0.00000
           D11          0.00000   0.00000   0.00000   0.00000   0.00000
           D12          0.00000   0.00000   0.00000   0.00000   0.00000
           D13          0.00000   0.00000   0.00000   0.00000   0.00000
           D14          0.00000   0.00000   0.00000   0.00000   0.00000
           D15          0.00000   0.00000   0.00000   0.00000   0.00000
           D16          0.00000   0.00000   0.00000   0.00000   0.00000
           D17          0.00000   0.00000   0.00000   0.00000   0.00000
           D18          0.00000   0.00000   0.00000   0.00000   0.00000
           D19          0.00000   0.00000   0.00000   0.00000   0.00000
           D20          0.00000   0.00000   0.00000   0.00000   0.00000
           D21          0.00000   0.00000   0.00000   0.00000   0.00000
           D22          0.00000   0.00000   0.00000   0.00000   0.00000
           D23          0.00000   0.00000   0.00000   0.00000   0.00000
           D24          0.00000   0.00000   0.00000   0.00000   0.00000
           D25          0.00000   0.00000   0.00000   0.00000   0.00000
           D26          0.00000   0.00000   0.00000   0.00000   0.00000
           D27          0.00000   0.00000   0.00000   0.00000   0.00000
           D28          0.00000   0.00000   0.00000   0.00000   0.00000
           D29          0.00000   0.00000   0.00000   0.00000   0.00000
                          A5        A6        A7        A8        A9
           A5           0.16000
           A6           0.00000   0.25000
           A7           0.00000   0.00000   0.16000
           A8           0.00000   0.00000   0.00000   0.25000
           A9           0.00000   0.00000   0.00000   0.00000   0.16000
           A10          0.00000   0.00000   0.00000   0.00000   0.00000
           A11          0.00000   0.00000   0.00000   0.00000   0.00000
           A12          0.00000   0.00000   0.00000   0.00000   0.00000
           A13          0.00000   0.00000   0.00000   0.00000   0.00000
           A14          0.00000   0.00000   0.00000   0.00000   0.00000
           A15          0.00000   0.00000   0.00000   0.00000   0.00000
           A16          0.00000   0.00000   0.00000   0.00000   0.00000
           A17          0.00000   0.00000   0.00000   0.00000   0.00000
           A18          0.00000   0.00000   0.00000   0.00000   0.00000
           A19          0.00000   0.00000   0.00000   0.00000   0.00000
           A20          0.00000   0.00000   0.00000   0.00000   0.00000
           A21          0.00000   0.00000   0.00000   0.00000   0.00000
           A22          0.00000   0.00000   0.00000   0.00000   0.00000
           A23          0.00000   0.00000   0.00000   0.00000   0.00000
           A24          0.00000   0.00000   0.00000   0.00000   0.00000
           A25          0.00000   0.00000   0.00000   0.00000   0.00000
           D1           0.00000   0.00000   0.00000   0.00000   0.00000
           D2           0.00000   0.00000   0.00000   0.00000   0.00000
           D3           0.00000   0.00000   0.00000   0.00000   0.00000
           D4           0.00000   0.00000   0.00000   0.00000   0.00000
           D5           0.00000   0.00000   0.00000   0.00000   0.00000
           D6           0.00000   0.00000   0.00000   0.00000   0.00000
           D7           0.00000   0.00000   0.00000   0.00000   0.00000
           D8           0.00000   0.00000   0.00000   0.00000   0.00000
           D9           0.00000   0.00000   0.00000   0.00000   0.00000
           D10          0.00000   0.00000   0.00000   0.00000   0.00000
           D11          0.00000   0.00000   0.00000   0.00000   0.00000
           D12          0.00000   0.00000   0.00000   0.00000   0.00000
           D13          0.00000   0.00000   0.00000   0.00000   0.00000
           D14          0.00000   0.00000   0.00000   0.00000   0.00000
           D15          0.00000   0.00000   0.00000   0.00000   0.00000
           D16          0.00000   0.00000   0.00000   0.00000   0.00000
           D17          0.00000   0.00000   0.00000   0.00000   0.00000
           D18          0.00000   0.00000   0.00000   0.00000   0.00000
           D19          0.00000   0.00000   0.00000   0.00000   0.00000
           D20          0.00000   0.00000   0.00000   0.00000   0.00000
           D21          0.00000   0.00000   0.00000   0.00000   0.00000
           D22          0.00000   0.00000   0.00000   0.00000   0.00000
           D23          0.00000   0.00000   0.00000   0.00000   0.00000
           D24          0.00000   0.00000   0.00000   0.00000   0.00000
           D25          0.00000   0.00000   0.00000   0.00000   0.00000
           D26          0.00000   0.00000   0.00000   0.00000   0.00000
           D27          0.00000   0.00000   0.00000   0.00000   0.00000
           D28          0.00000   0.00000   0.00000   0.00000   0.00000
           D29          0.00000   0.00000   0.00000   0.00000   0.00000
                          A10       A11       A12       A13       A14
           A10          0.16000
           A11          0.00000   0.25000
           A12          0.00000   0.00000   0.16000
           A13          0.00000   0.00000   0.00000   0.25000
           A14          0.00000   0.00000   0.00000   0.00000   0.16000
           A15          0.00000   0.00000   0.00000   0.00000   0.00000
           A16          0.00000   0.00000   0.00000   0.00000   0.00000
           A17          0.00000   0.00000   0.00000   0.00000   0.00000
           A18          0.00000   0.00000   0.00000   0.00000   0.00000
[...]
 000081\C,0.697271,-1.227831,-0.000037\H,1.165199,-2.20202,-0.000119\C,
 -0.674404,1.288154,0.000165\H,-1.1721,2.248117,0.000241\C,-0.7248,-1.1
 47942,0.000144\O,-1.339322,-2.349244,0.000213\C,-2.765207,-2.447208,0.
 000362\H,-2.983855,-3.512577,0.000322\H,-3.182182,-1.979455,0.895417\H
 ,-3.182381,-1.979343,-0.894539\\Version=EM64L-G09RevC.01\HF=-346.86208
 66\RMSD=2.638e-09\RMSF=5.064e-06\ZeroPoint=0.1260933\Thermal=0.1345867
 \Dipole=-1.0004157,-0.3679802,0.0001098\DipoleDeriv=0.0257619,0.206995
 4,-0.0000097,0.0036652,-0.6610771,-0.0000141,-0.000197,0.0003364,-0.20
 51355,-0.1025288,-0.0052944,0.0000052,-0.0045047,0.0497654,-0.0000039,
 0.0002667,-0.0005734,0.1872007,-0.290491,0.1768801,-0.0000073,0.627178
 6,0.0955443,-0.0000569,-0.0000121,0.0001974,-0.2122517,-0.0645741,-0.0
 081184,0.0000377,-0.018115,0.0598887,-0.0000191,0.0001072,-0.0003781,0
 .1778876,0.5933463,-0.1814135,-0.000092,0.045639,0.6280846,0.000004,0.
 0001953,-0.0004694,-0.1029723,0.0123873,-0.0873417,0.0000147,-0.084294
 ,-0.0670017,0.000008,0.0001866,-0.0003245,0.1204527,-0.3405252,0.31457
 52,0.0000012,0.1937093,0.1394404,-0.0000164,-0.0001682,-0.0003575,-0.2
 814436,0.0447331,0.025321,-0.0000021,0.0543611,-0.0347395,-0.0000048,0
 .0001805,-0.0006299,0.2044024,-0.5870395,-0.1311328,0.0000434,-0.22428
 8,-0.1241784,0.0000499,0.0004688,-0.0003049,-0.231066,0.014707,0.06157
 87,0.0000159,0.054814,-0.0688942,-0.0000121,0.000129,-0.000489,0.19148
 71,0.8460469,-0.1911868,-0.0001003,-0.2906374,0.4554692,0.0000397,-0.0
 00335,-0.0001551,0.0243879,-0.7862342,-0.3290101,0.0000813,-0.5481771,
 -0.8914514,0.000057,0.0000892,0.0002462,-0.1804525,0.7104764,0.3502779
 ,-0.0000569,0.2195645,0.4246896,-0.0000245,0.000055,0.0001381,0.275568
 3,0.0281805,-0.0295933,0.0000195,-0.0853957,-0.091676,0.0000019,0.0001
 539,-0.0004615,0.1071464,-0.0521113,-0.0858191,-0.0000267,0.0284854,0.
 0420744,-0.084813,0.0615305,-0.0318161,-0.0371671,-0.0520861,-0.085813
 5,0.0000402,0.0285106,0.042049,0.08481,-0.061558,0.0318226,-0.0371297\
 Quadrupole=5.5080395,0.5207021,-6.0287416,5.005092,-0.0015093,-0.00049
 14\QuadrupoleDeriv=0.2706298,0.238547,-0.5091769,-1.3101245,-0.0002866
 ,0.000129,0.4025857,0.3723714,-0.7749571,0.9449398,-0.0000587,-0.00021
 52,-0.0000418,-0.0003255,0.0003673,-0.0003058,-1.1759045,-0.1597771,-0
 .0542148,0.2119179,-0.1577031,0.0587313,0.0001878,0.0001093,0.040377,-
 0.0263574,-0.0140197,0.8951934,0.0000921,-0.0000996,0.0002852,0.000091
 7,-0.0003768,0.0003221,1.0494709,0.0749073,-0.0213045,-0.485058,0.5063
 625,1.0288843,0.0002932,-0.0001129,-1.3561918,0.5683976,0.7877942,-1.3
 21015,0.0003446,0.0001529,0.000737,-0.0003414,-0.0003956,-0.0005489,1.
 4283551,-0.2168846,-0.1066695,-0.0541915,0.160861,0.0138746,-0.0002838
 ,0.0000282,0.0852271,-0.0401927,-0.0450343,-0.8667513,0.0000853,0.0000
 69,0.0004195,-0.0006401,0.0002206,0.0002395,-1.1152606,0.1713202,0.481
 1684,-0.1403567,-0.3408116,0.9985116,-0.0000407,-0.0002032,-1.1175311,
 1.0176647,0.0998664,-0.2791375,0.0001156,0.0000899,0.0003472,-0.000435
 2,0.0000881,-0.0000194,-0.2380704,-0.3650244,0.7512313,-0.6595069,-0.0
 917244,0.3006023,-0.0001265,0.0000522,-0.2591115,0.3917846,-0.1326731,
 -0.2954864,-0.0000305,0.0001984,0.0006564,-0.0003782,-0.0002782,0.0004
 674,0.3978655,0.6143496,0.9805146,-1.0280377,0.0475231,0.4135905,-0.00
 0293,0.0003374,-0.2605443,-0.6327644,0.8933087,0.2026575,0.0001727,-0.
 0001145,-0.0000668,-0.0001132,0.00018,0.0000831,-0.792718,1.5438784,0.
 605088,-0.4787344,-0.1263536,-0.4920711,-0.0000967,-0.0001371,0.222909
 3,-0.4351058,0.2121965,-0.2674001,-0.0000015,-0.0001294,0.0001014,0.00
 02346,-0.000336,0.0003495,0.5405187,-1.1144186,-0.3746472,0.4247839,-0
 .0501367,0.5254238,0.0000318,-0.0002218,1.067626,-0.2293757,-0.8382503
 ,-0.2564923,-0.0003115,0.000015,0.0005185,-0.0005483,0.0000298,-0.0004
 066,0.4152437,-1.2160691,-0.6770602,0.6143008,0.0627594,0.3669112,0.00
 00503,0.0000994,-0.173062,0.3078558,-0.1347938,0.3757021,-0.0000074,-0
 .0000242,0.0002559,-0.0002172,-0.0000387,0.0004625,-0.3952723,0.965760
 7,-1.1952084,0.5866383,0.6085701,-2.5297326,0.0003888,0.0002533,1.4619
 608,-2.1376321,0.6756713,-1.4651634,-0.0001529,0.0002212,0.0001607,0.0
 002212,-0.0003819,0.0002269,-0.042035,-0.2882607,2.3251209,-0.4902769,
 -1.834844,3.7246298,-0.0003684,-0.0002141,-0.2972714,2.3268467,-2.0295
 753,4.3020544,-0.0001399,-0.0008034,-0.0000688,0.0000807,-0.0000119,-0
 .0004058,0.8977595,1.0851117,-2.5774683,0.7852606,1.7922077,-3.8221972
 ,0.0003,0.0004058,0.4793141,-2.5853841,2.10607,-2.8100992,0.0002146,0.
 0003093,-0.0004634,-0.000142,0.0006054,0.0000173,-1.817938,-0.737997,-
 0.6879205,0.464072,0.2238484,-0.6090214,0.0000039,-0.0000206,0.3307644
 ,-0.0052627,-0.3255017,0.8579942,0.0000258,-0.0001195,0.0001746,-0.000
 0636,-0.000111,0.0003514,-0.6378408,-1.1527369,-0.5267779,0.3371774,0.
 1896005,0.4796131,0.231239,0.0314612,-0.1923789,0.3094217,-0.1170428,-
 0.5097172,0.5545091,0.7586728,-0.7813153,0.2539352,0.5273801,0.0281409
 ,0.242952,0.2131944,-0.5267333,0.3371413,0.189592,0.4795154,-0.2310564
 ,-0.0316579,-0.1927663,0.3096112,-0.1168449,-0.5097844,-0.5545537,-0.7
 585023,0.7816037,-0.2539906,-0.5276131,-0.0281527,0.2425662,0.213122\P
 G=C01 [X(C7H8O1)]\NImag=0\\0.67749203,-0.00305359,0.59247468,-0.000079
 29,0.00000534,0.06025348,-0.34320562,0.00347430,0.00004364,0.36240825,
 0.00253876,-0.05571253,0.00000246,-0.00388905,0.05672114,0.00004643,0.
 00000254,-0.01910552,-0.00004599,-0.00000148,0.01312756,0.00995316,0.0
 0424490,-0.00000420,0.00016343,-0.00062436,0.00000330,0.69052773,-0.02
 027839,-0.01740708,0.00000036,0.00035256,-0.00013868,0.00000464,0.0167
 2217,0.58582498,-0.00000374,-0.00000063,-0.00722919,0.00000057,0.00000
 104,-0.00005464,-0.00008815,0.00000262,0.05358879,-0.00017633,-0.00037
 563,-0.00000496,-0.00004930,-0.00000266,0.00000311,-0.34580025,0.00951
 783,0.00004872,0.36678095,-0.00102372,-0.00047345,0.00000125,0.0000126
 0,0.00016157,-0.00000301,0.00867361,-0.05571295,-0.00000383,-0.0063169
 9,0.05660434,0.00000312,0.00000517,-0.00065327,0.00000292,-0.00000134,
 -0.00016205,0.00005279,0.00000120,-0.01299564,-0.00005486,0.00000094,0
 .00868191,-0.13757484,0.07122941,0.00001933,-0.01126900,0.02941838,-0.
 00001287,-0.02957813,-0.00818312,0.00000713,-0.00018466,-0.00086808,-0
 .00001181,0.59798307,0.08501597,-0.25291687,-0.00001930,-0.00215594,0.
 00285175,0.00000795,-0.03336202,-0.00339476,0.00000129,-0.00283532,-0.
 00539881,0.00000834,0.05013022,0.65500373,0.00001170,-0.00000711,-0.04
 491108,0.00000632,-0.00000540,0.00128979,0.00001155,0.00000656,0.00089
 359,0.00000200,-0.00000095,0.00278309,-0.00007451,0.00000937,0.1125921
 4,0.01189474,0.01430950,-0.00000076,0.00071724,-0.00053026,0.00000117,
 -0.00500552,0.00213529,-0.00000302,-0.00063506,-0.00136265,-0.00000206
 ,-0.13392578,-0.12339769,0.00001326,0.13892392,-0.01675959,-0.01872786
 ,-0.00000064,0.00036509,0.00093663,-0.00000079,0.00075205,0.00142420,-
 0.00000295,0.00021148,0.00009786,-0.00000148,-0.12364531,-0.25957141,0
 .00001105,0.13261036,0.27408941,0.00000263,-0.00000093,0.00920854,0.00
 000312,-0.00000126,-0.00224325,0.00000384,0.00000444,0.00336820,0.0000
 0074,-0.00000004,-0.00141315,-0.00000032,0.00001949,-0.03583950,-0.000
 01412,-0.00001635,0.01761768,-0.13747001,-0.08389263,0.00001589,-0.011
 00967,-0.02800429,-0.00000128,-0.04455359,0.04983804,0.00001031,0.0023
 1489,0.00167133,-0.00000387,0.00983271,0.01201825,0.00000096,-0.001356
 85,0.00419647,-0.00000452,0.57481042,-0.10237525,-0.25374848,0.0000192
 8,0.00305209,0.00434337,-0.00000523,0.04482445,0.00729657,-0.00000174,
 0.00180503,-0.00470674,-0.00000484,-0.01704248,-0.04429860,-0.00000429
 ,0.00273098,-0.00236392,-0.00000370,-0.02235785,0.69625216,0.00001624,
 0.00001572,-0.02194562,-0.00000235,0.00000518,0.00131630,0.00000488,0.
 00000217,0.02129031,0.00000120,-0.00000280,-0.00094468,-0.00000672,-0.
 00000840,0.00290464,0.00000277,-0.00001060,0.00396438,-0.00006714,0.00
 001403,0.05608548,0.01239128,-0.01665178,-0.00000328,0.00058610,0.0007
 5180,0.00000096,-0.00481976,-0.00188083,-0.00000270,-0.00059080,0.0013
 9585,0.00000306,-0.00321005,-0.00244568,0.00000211,0.00045189,-0.00088
 219,0.00000075,-0.11085429,0.11345723,0.00001005,0.11352555,0.01388140
 ,-0.01349258,-0.00000494,-0.00032259,0.00078427,0.00000026,-0.00131656
 ,0.00143023,0.00000076,-0.00019127,0.00005965,-0.00000184,-0.00346826,
 -0.00293350,-0.00000106,0.00069520,-0.00087858,-0.00000209,0.11581758,
 -0.29128747,-0.00002075,-0.12287023,0.30536001,0.00000388,0.00000436,0
 .00305582,0.00000218,-0.00000220,-0.00039153,0.00000476,0.00000574,-0.
 00149892,0.00000127,-0.00000250,0.00408619,-0.00001202,0.00000689,0.00
 246369,-0.00000055,-0.00000091,-0.00125246,0.00001457,-0.00002132,-0.0
 1362531,-0.00001422,0.00001779,0.00888055,-0.04173562,0.03202577,0.000
 01118,0.00176619,0.00114579,0.00000306,-0.15175929,-0.09677994,0.00001
 533,-0.01004661,-0.02764789,0.00000756,-0.28459958,-0.01045137,0.00003
 532,-0.01138776,0.00283328,0.00000567,-0.00040021,-0.00265401,0.000002
 93,0.00034176,-0.00028079,0.00000551,0.60458916,0.06569899,0.01778469,
 -0.00000484,0.00157962,-0.00458181,-0.00000043,-0.11098126,-0.24401466
 ,0.00000765,0.00420372,0.00594178,0.00000108,0.00942943,-0.10306097,-0
 .00000517,-0.02828021,0.00457256,0.00000146,-0.03015316,-0.00746680,0.
 00000397,-0.00073839,-0.00046383,0.00000192,-0.03261413,0.66399599,0.0
 0001366,-0.00000159,0.01614347,0.00000511,-0.00000222,0.00168959,0.000
 02062,0.00001176,-0.02056094,0.00000591,0.00000617,0.00350693,0.000015
 29,0.00001008,-0.04274560,-0.00000244,0.00000144,0.00900676,-0.0000107
 9,-0.00000348,-0.00942507,0.00000572,-0.00000914,-0.00061739,-0.000066
 39,0.00001268,0.05513887,-0.00485381,-0.00194210,-0.00000364,-0.000626
 85,0.00138132,0.00000330,0.01088643,-0.01765801,-0.00000697,0.00074412
 ,0.00067611,0.00000275,-0.01043492,0.02934831,0.00000776,0.00094086,-0
 .00042900,0.00000235,0.00021072,-0.00076946,-0.00000620,0.00012447,0.0
 0007856,0.00000413,-0.11629303,0.11737199,0.00001532,0.12168129,-0.001
 81391,0.00112073,0.00000099,-0.00009600,0.00000543,-0.00000519,0.01397
 814,-0.01800767,-0.00000126,-0.00028866,0.00081961,-0.00000612,-0.0020
 2369,0.00255974,-0.00000124,0.00048752,0.00067871,-0.00000472,0.000851
 16,0.00022333,-0.00000396,0.00008880,-0.00000199,-0.00000658,0.1175034
 3,-0.28283162,-0.00002748,-0.12477441,0.29779603,0.00000175,0.00000243
 ,0.00107736,0.00000394,-0.00000031,0.00197941,0.00000236,0.00000467,0.
 00122752,-0.00000192,-0.00000110,-0.00056888,-0.00000962,0.00000058,0.
 00120902,-0.00000222,-0.00000327,-0.00187297,-0.00000165,-0.00000649,0
 .00008690,0.00000154,0.00000007,-0.00020906,0.00001603,-0.00001897,-0.
 01743029,-0.00001116,0.00001412,0.01194358,-0.04360094,-0.02476226,0.0
 0001010,0.00159692,0.00032038,-0.00000706,-0.14344042,0.06112489,0.000
 01521,-0.01231175,0.02728748,0.00000443,0.01010693,-0.00468173,-0.0000
 1469,-0.00087008,0.00106194,-0.00000396,-0.23725930,0.03648395,0.00002
 418,-0.01086016,-0.00167483,-0.00000523,0.00429195,-0.00045139,-0.0000
 1148,-0.00326540,-0.00487111,-0.00000242,0.59142993,-0.02378739,-0.010
 19264,-0.00000323,-0.00202636,-0.00485896,0.00000742,0.08329029,-0.202
 52435,-0.00002274,-0.00205974,0.00407712,-0.00000019,-0.00677504,0.012
 99370,0.00000368,0.00084352,-0.00013606,0.00000193,0.01051535,-0.08663
 987,-0.00000258,0.02923545,-0.00015893,0.00000242,0.00702944,-0.050456
 31,0.00000241,-0.00175183,-0.00059713,0.00000511,-0.00212489,0.6049550
 8,0.00000499,0.00000960,0.00163731,-0.00000115,-0.00000261,0.00303627,
 0.00001594,-0.00000962,-0.04656037,-0.00000375,0.00000155,0.00007492,0
 .00000564,0.00000111,-0.00075918,-0.00000054,0.00000298,-0.00083504,0.
 00002667,-0.00000863,-0.04643499,0.00000917,-0.00000393,0.00110245,0.0
 0000267,0.00000587,0.00238157,0.00000696,0.00000569,0.00306244,-0.0000
 6190,0.00000884,0.11525145,-0.00290838,0.00653323,0.00000060,-0.001141
 57,-0.00224408,-0.00000057,0.01146173,-0.00083261,-0.00000555,0.000212
 76,-0.00089278,0.00000826,-0.00526500,0.00234096,0.00000430,0.00017830
 ,-0.00035321,0.00000175,-0.04583369,-0.05554970,0.00000707,0.00280993,
 -0.00025181,-0.00000548,0.00551242,0.00529481,0.00000476,0.00056674,0.
 00049394,-0.00000127,-0.13053603,-0.08268917,0.00001386,0.44786649,0.0
 0414833,0.00842231,0.00000503,-0.00028465,-0.00016688,-0.00000187,-0.0
 2423965,-0.04947947,0.00000516,0.00032240,0.00233335,-0.00000291,0.002
 79393,0.00028688,-0.00000565,-0.00030377,-0.00020323,-0.00000110,-0.02
 876606,-0.01178818,0.00000361,0.00079830,0.00138465,-0.00000345,0.0087
 7109,-0.00079165,0.00000108,-0.00162851,-0.00188522,-0.00000376,-0.051
 40558,-0.27036746,0.00000739,0.11791837,0.40274693,-0.00000134,-0.0000
 0090,0.00179248,-0.00000023,0.00000159,0.00019554,0.00000215,-0.000006
 22,0.01061939,-0.00000055,-0.00000021,-0.00346551,0.00000365,-0.000001
 38,0.00029174,0.00000115,0.00000275,-0.00019438,0.00000464,0.00000401,
 0.00128253,-0.00000101,0.00000261,-0.00094714,-0.00000349,-0.00000111,
 0.00437634,0.00000003,0.00000288,-0.00111556,0.00001355,0.00000795,-0.
 02865555,-0.00004213,-0.00001074,0.05786316,-0.00102322,0.00160064,-0.
 00000192,0.00021354,0.00002765,-0.00000034,0.00183650,0.00386943,-0.00
 000071,-0.00117711,-0.00027416,0.00000207,-0.00104639,-0.00314965,0.00
 000148,0.00006526,0.00018956,-0.00000028,0.00223037,0.00008321,0.00000
 144,-0.00019352,-0.00016403,-0.00000408,-0.00049102,0.00064035,0.00000
 286,0.00031954,0.00053354,-0.00000238,-0.02481793,-0.02019157,0.000002
 61,-0.19133952,-0.00682400,0.00001517,0.41628166,-0.00303860,0.0045109
 2,0.00000208,-0.00005294,-0.00028783,-0.00000027,-0.00096488,-0.006352
 27,0.00000176,-0.00205218,-0.00173914,0.00000107,0.00011945,-0.0034087
 6,-0.00000366,0.00006142,0.00009437,0.00000146,-0.00127280,-0.00630190
 ,-0.00000675,-0.00023948,0.00024581,0.00000071,0.00089526,0.00170884,-
 0.00000051,0.00001917,0.00003215,0.00000359,-0.03648723,0.00187352,0.0
 0000440,0.01125277,-0.08692998,-0.00000183,-0.00538623,0.61501980,-0.0
 0000001,-0.00000090,0.00028780,0.00000045,0.00000068,-0.00078586,-0.00
 000171,-0.00000447,-0.00375726,0.00000103,0.00000031,0.00250308,0.0000
 0276,-0.00000221,-0.00048744,0.00000151,0.00000120,0.00066472,-0.00000
 108,0.00000120,0.00631033,0.00000049,0.00000036,-0.00100526,-0.0000033
 0,0.00000103,-0.00197179,0.00000025,0.00000015,0.00090325,0.00000385,0
 .00000420,-0.00517424,0.00001127,-0.00000013,-0.05249247,0.00001862,-0
 .00000015,0.56542492,-0.00034991,-0.00016943,-0.00000013,-0.00006603,-
 0.00015526,-0.00000039,-0.00085766,0.00101526,-0.00000081,0.00079396,-
 0.00000643,-0.00000158,-0.00014198,0.00060679,0.00000155,0.00003582,-0
 .00003080,0.00000018,-0.00007704,-0.00153937,0.00000078,-0.00001924,0.
 00006669,0.00000075,0.00044112,-0.00029985,-0.00000103,-0.00002997,-0.
 00005464,0.00000014,-0.00468634,0.00258494,0.00000105,-0.02442807,-0.0
 4341746,0.00000065,-0.05064456,-0.03533911,-0.00000244,0.07205209,0.00
 006650,0.00004919,0.00000061,-0.00001958,-0.00001244,-0.00000093,0.000
 25490,-0.00000698,-0.00000087,-0.00044856,0.00009471,0.00000045,0.0000
 6811,-0.00005367,-0.00000096,-0.00004296,-0.00001391,-0.00000054,-0.00
 017894,-0.00001346,-0.00000056,-0.00002521,-0.00000739,-0.00000098,-0.
 00027520,0.00005670,0.00000277,0.00000775,-0.00001972,-0.00000292,0.00
 122423,0.00171157,0.00000013,-0.00342261,0.00082387,0.00000026,-0.0497
 7364,-0.31899334,-0.00001031,0.05516167,0.33772638,0.00000237,0.000004
 09,-0.00000966,0.00000270,-0.00000104,0.00000764,0.00000280,0.00000676
 ,0.00039514,0.00000024,-0.00000097,-0.00056181,-0.00000988,0.00000568,
 0.00012233,-0.00000105,-0.00000282,0.00001148,-0.00000073,-0.00000330,
 0.00015351,0.00000178,-0.00000338,0.00001299,0.00000390,-0.00000152,0.
 00014245,0.00000209,-0.00000509,-0.00011150,-0.00000247,0.00000501,0.0
 0086507,0.00000321,0.00000157,-0.00065587,-0.00000496,-0.00001285,-0.0
 5070020,0.00000057,0.00001107,0.04662118,0.00058001,-0.00126716,-0.000
 05793,-0.00004618,-0.00006759,0.00011229,0.00048873,0.00051936,0.00010
 578,0.00005734,-0.00066234,0.00027426,-0.00033171,0.00149217,0.0000094
 2,-0.00001702,-0.00006131,-0.00009880,-0.00028539,-0.00007992,-0.00118
 759,0.00015960,-0.00000192,0.00025171,-0.00011030,-0.00033997,0.000163
 09,0.00001401,-0.00000866,-0.00006192,0.00210346,0.00394994,0.00106033
 ,-0.03357441,0.01106121,0.02778697,-0.07508902,0.03622319,0.07050921,0
 .00398844,-0.00129803,-0.00520175,0.09527836,0.00038541,-0.00084739,0.
 00006898,0.00000329,-0.00002381,0.00010117,-0.00062296,0.00053988,-0.0
 0081146,-0.00074636,-0.00108060,0.00072564,-0.00060926,0.00067910,0.00
 003756,0.00001734,-0.00000559,-0.00015632,-0.00011401,0.00024733,-0.00
 020185,0.00000467,-0.00002578,-0.00006558,0.00026721,-0.00019000,0.000
 46289,0.00003701,0.00004676,-0.00001854,-0.00054216,0.00016852,0.00040
 467,0.00119838,0.00280010,0.00548214,0.03939787,-0.09972671,-0.0959239
 3,0.01078542,-0.01067030,-0.02605511,-0.04406113,0.10102177,0.00015543
 ,0.00050799,0.00019923,-0.00001013,0.00001854,0.00004986,0.00037726,-0
 .00083507,0.00063322,-0.00060073,0.00036433,-0.00043463,-0.00005341,-0
 .00064291,0.00008940,-0.00004873,0.00001769,-0.00009611,-0.00070904,0.
 00015297,-0.00050589,-0.00007263,-0.00002827,-0.00003232,-0.00019198,0
 .00024022,0.00017977,0.00003186,0.00002532,-0.00008238,0.00041693,-0.0
 0071436,0.00051056,0.00357234,0.00304747,0.00555220,0.07517805,-0.0940
 2530,-0.22988625,-0.00164148,0.00099030,0.00185342,-0.08502980,0.10341
 637,0.24186081,0.00057972,-0.00126698,0.00005938,-0.00004565,-0.000067
 54,-0.00011656,0.00048873,0.00051912,-0.00010417,0.00005729,-0.0006620
 7,-0.00027208,-0.00033224,0.00149204,-0.00000802,-0.00001686,-0.000061
 27,0.00009919,-0.00028455,-0.00008047,0.00118843,0.00015964,-0.0000018
 8,-0.00025772,-0.00010957,-0.00033997,-0.00016271,0.00001412,-0.000008
 54,0.00006406,0.00210341,0.00395072,-0.00106074,-0.03358246,0.01106377
 ,-0.02777837,-0.07512288,0.03625329,-0.07053997,0.00398981,-0.00129888
 ,0.00520169,0.00678538,-0.00539709,0.00862905,0.09531751,0.00038639,-0
 .00084694,-0.00006239,0.00000360,-0.00002343,-0.00010454,-0.00062359,0
 .00053933,0.00081159,-0.00074700,-0.00108064,-0.00072377,-0.00060904,0
 .00067845,-0.00003824,0.00001807,-0.00000581,0.00015510,-0.00011373,0.
 00024694,0.00020321,0.00000503,-0.00002575,0.00006617,0.00026705,-0.00
 018946,-0.00046401,0.00003727,0.00004727,0.00001831,-0.00054266,0.0001
 6970,-0.00040322,0.00119676,0.00279974,-0.00548324,0.03942960,-0.09975
 088,0.09593154,0.01079101,-0.01067314,0.02605196,-0.00539874,0.0070707
 5,-0.01252918,-0.04409586,0.10104909,-0.00015569,-0.00050891,0.0001958
 4,0.00001026,-0.00001860,0.00004864,-0.00037652,0.00083575,0.00063390,
 0.00060073,-0.00036403,-0.00043441,0.00005398,0.00064305,0.00009257,0.
 00004843,-0.00001748,-0.00009609,0.00070842,-0.00015166,-0.00050511,0.
 00007235,0.00002843,-0.00003610,0.00019200,-0.00024082,0.00017810,-0.0
 0003184,-0.00002556,-0.00008014,-0.00041756,0.00071185,0.00050684,-0.0
 0356237,-0.00304943,0.00555896,-0.07521028,0.09403476,-0.22983134,0.00
 164260,-0.00099157,0.00185480,-0.00863556,0.01253364,-0.01988940,0.085
 05829,-0.10342584,0.24179976\\0.00000344,-0.00000713,-0.00000007,0.000
 00189,-0.00001169,-0.00000001,0.00000080,0.00000716,-0.00000024,0.0000
 0270,0.00000506,0.00000010,0.00000666,-0.00000452,0.00000001,0.0000094
 3,-0.00000698,-0.00000002,-0.00000232,-0.00000435,0.00000012,-0.000005
 90,-0.00000695,0.,0.00000587,-0.00000319,0.00000012,0.00000999,0.00000
 221,0.,-0.00000134,-0.00000330,-0.00000027,-0.00000599,0.00000168,0.00
 000049,-0.00000687,0.00000761,-0.00000118,-0.00000920,0.00000770,0.000
 00001,-0.00000474,0.00000845,0.00000038,-0.00000443,0.00000823,0.00000
 054\\\@


 PATIENCE IS THE ABILITY TO IDLE YOUR MOTOR WHEN
 YOU FEEL LIKE STRIPPING YOUR GEARS.
 Job cpu time:  1 days  2 hours 19 minutes 28.4 seconds.
 File lengths (MBytes):  RWF=    112 Int=      0 D2E=      0 Chk=     52 Scr=      1
 Normal termination of Gaussian 09 at Fri Sep 25 12:45:29 2015.
