 Entering Gaussian System, Link 0=g09
 Input=t1-s0-broad.inp
 Output=t1-s0-broad.log
 Initial command:
 /usr/soft/chemie/g09/l1.exe /tmp/Gau-27577.inp -scrdir=/tmp/
 Entering Link 1 = /usr/soft/chemie/g09/l1.exe PID=     27578.
  
 Copyright (c) 1988,1990,1992,1993,1995,1998,2003,2009,2011,
            Gaussian, Inc.  All Rights Reserved.
  
 This is part of the Gaussian(R) 09 program.  It is based on
 the Gaussian(R) 03 system (copyright 2003, Gaussian, Inc.),
 the Gaussian(R) 98 system (copyright 1998, Gaussian, Inc.),
 the Gaussian(R) 94 system (copyright 1995, Gaussian, Inc.),
 the Gaussian 92(TM) system (copyright 1992, Gaussian, Inc.),
 the Gaussian 90(TM) system (copyright 1990, Gaussian, Inc.),
 the Gaussian 88(TM) system (copyright 1988, Gaussian, Inc.),
 the Gaussian 86(TM) system (copyright 1986, Carnegie Mellon
 University), and the Gaussian 82(TM) system (copyright 1983,
 Carnegie Mellon University). Gaussian is a federally registered
 trademark of Gaussian, Inc.
  
 This software contains proprietary and confidential information,
 including trade secrets, belonging to Gaussian, Inc.
  
 This software is provided under written license and may be
 used, copied, transmitted, or stored only in accord with that
 written license.
  
 The following legend is applicable only to US Government
 contracts under FAR:
  
                    RESTRICTED RIGHTS LEGEND
  
 Use, reproduction and disclosure by the US Government is
 subject to restrictions as set forth in subparagraphs (a)
 and (c) of the Commercial Computer Software - Restricted
 Rights clause in FAR 52.227-19.
  
 Gaussian, Inc.
 340 Quinnipiac St., Bldg. 40, Wallingford CT 06492
  
  
 ---------------------------------------------------------------
 Warning -- This program may not be used in any manner that
 competes with the business of Gaussian, Inc. or will provide
 assistance to any competitor of Gaussian, Inc.  The licensee
 of this program is prohibited from giving any competitor of
 Gaussian, Inc. access to this program.  By using this program,
 the user acknowledges that Gaussian, Inc. is engaged in the
 business of creating and licensing software in the field of
 computational chemistry and represents and warrants to the
 licensee that it is not a competitor of Gaussian, Inc. and that
 it will not use this program in any manner prohibited above.
 ---------------------------------------------------------------
  

 Cite this work as:
 Gaussian 09, Revision C.01,
 M. J. Frisch, G. W. Trucks, H. B. Schlegel, G. E. Scuseria, 
 M. A. Robb, J. R. Cheeseman, G. Scalmani, V. Barone, B. Mennucci, 
 G. A. Petersson, H. Nakatsuji, M. Caricato, X. Li, H. P. Hratchian, 
 A. F. Izmaylov, J. Bloino, G. Zheng, J. L. Sonnenberg, M. Hada, 
 M. Ehara, K. Toyota, R. Fukuda, J. Hasegawa, M. Ishida, T. Nakajima, 
 Y. Honda, O. Kitao, H. Nakai, T. Vreven, J. A. Montgomery, Jr., 
 J. E. Peralta, F. Ogliaro, M. Bearpark, J. J. Heyd, E. Brothers, 
 K. N. Kudin, V. N. Staroverov, T. Keith, R. Kobayashi, J. Normand, 
 K. Raghavachari, A. Rendell, J. C. Burant, S. S. Iyengar, J. Tomasi, 
 M. Cossi, N. Rega, J. M. Millam, M. Klene, J. E. Knox, J. B. Cross, 
 V. Bakken, C. Adamo, J. Jaramillo, R. Gomperts, R. E. Stratmann, 
 O. Yazyev, A. J. Austin, R. Cammi, C. Pomelli, J. W. Ochterski, 
 R. L. Martin, K. Morokuma, V. G. Zakrzewski, G. A. Voth, 
 P. Salvador, J. J. Dannenberg, S. Dapprich, A. D. Daniels, 
 O. Farkas, J. B. Foresman, J. V. Ortiz, J. Cioslowski, 
 and D. J. Fox, Gaussian, Inc., Wallingford CT, 2010.
 
 ******************************************
 Gaussian 09:  EM64L-G09RevC.01 23-Sep-2011
                28-Apr-2015 
 ******************************************
 %nprocs=8
 Will use up to    8 processors via shared memory.
 %mem=1000MW
 %chk=t1-freq.chk
 --------------------------------------------------------
 #P Geom=AllCheck Freq=(ReadFC,FC,SaveNM,ReadFCHT) NoSymm
 --------------------------------------------------------
 1/29=7,38=1/1;
 2/12=2,15=1,40=1/2;
 7/8=1,25=11,30=1,71=10,72=1,92=1/16;
 99/5=2,8=110000/99;
 Leave Link    1 at Tue Apr 28 17:26:46 2015, MaxMem= 1048576000 cpu:       0.7
 (Enter /usr/soft/chemie/g09/l101.exe)
 Structure from the checkpoint file:  t1-freq.chk
 -------------------------
 acrolein test BLYP opt S0
 -------------------------
 Charge =  0 Multiplicity = 3
 No Z-Matrix found in file; cartesian coordinates used.
  O                                                -1.900235000000     -0.167316000000      0.000034000000
  C                                                 1.830464000000      0.160063000000      0.000006000000
  C                                                 0.556890000000     -0.401155000000     -0.000020000000
  C                                                -0.646364000000      0.339148000000     -0.000050000000
  H                                                -0.646501000000      1.443697000000      0.000013000000
  H                                                 0.450083000000     -1.490964000000      0.000003000000
  H                                                 2.716299000000     -0.476218000000      0.000012000000
  H                                                 1.991132000000      1.240866000000      0.000004000000
 Recover connectivity data from disk.
 NAtoms=      8 NQM=        0 NQMF=       0 NMMI=      8 NMMIF=      0
                NMic=       0 NMicF=      0.
                    Isotopes and Nuclear Properties:
 (Nuclear quadrupole moments (NQMom) in fm**2, nuclear magnetic moments (NMagM)
  in nuclear magnetons)

  Atom         1           2           3           4           5           6           7           8
 IAtWgt=          16          12          12          12           1           1           1           1
 AtmWgt=  15.9949146  12.0000000  12.0000000  12.0000000   1.0078250   1.0078250   1.0078250   1.0078250
 NucSpn=           0           0           0           0           1           1           1           1
 AtZEff=  -5.6000000  -3.6000000  -3.6000000  -3.6000000  -1.0000000  -1.0000000  -1.0000000  -1.0000000
 NQMom=    0.0000000   0.0000000   0.0000000   0.0000000   0.0000000   0.0000000   0.0000000   0.0000000
 NMagM=    0.0000000   0.0000000   0.0000000   0.0000000   2.7928460   2.7928460   2.7928460   2.7928460
 Leave Link  101 at Tue Apr 28 17:26:46 2015, MaxMem= 1048576000 cpu:       0.9
 (Enter /usr/soft/chemie/g09/l202.exe)
                          Input orientation:                          
 ---------------------------------------------------------------------
 Center     Atomic      Atomic             Coordinates (Angstroms)
 Number     Number       Type             X           Y           Z
 ---------------------------------------------------------------------
      1          8           0       -1.900235   -0.167316    0.000034
      2          6           0        1.830464    0.160063    0.000006
      3          6           0        0.556890   -0.401155   -0.000020
      4          6           0       -0.646364    0.339148   -0.000050
      5          1           0       -0.646501    1.443697    0.000013
      6          1           0        0.450083   -1.490964    0.000003
      7          1           0        2.716299   -0.476218    0.000012
      8          1           0        1.991132    1.240866    0.000004
 ---------------------------------------------------------------------
                    Distance matrix (angstroms):
                    1          2          3          4          5
     1  O    0.000000
     2  C    3.745036   0.000000
     3  C    2.468227   1.391746   0.000000
     4  C    1.352294   2.483294   1.412752   0.000000
     5  H    2.041375   2.789816   2.202641   1.104549   0.000000
     6  H    2.697413   2.152055   1.095030   2.133426   3.132847
     7  H    4.626857   1.090668   2.160713   3.460105   3.872273
     8  H    4.138323   1.092680   2.180203   2.787379   2.645420
                    6          7          8
     6  H    0.000000
     7  H    2.483031   0.000000
     8  H    3.136515   1.863933   0.000000
 Symmetry turned off by external request.
 Stoichiometry    C3H4O(3)
 Framework group  C1[X(C3H4O)]
 Deg. of freedom    18
 Full point group                 C1      NOp   1
 Rotational constants (GHZ):     50.0120921      4.2688116      3.9330996
 Leave Link  202 at Tue Apr 28 17:26:46 2015, MaxMem= 1048576000 cpu:       0.0
 (Enter /usr/soft/chemie/g09/l716.exe)
 Electric field and nuclear coordinate derivatives read from checkpoint file.
 Dipole        = 3.49006434D-01 2.61149997D-01-6.61979929D-05
 Polarizability= 6.37876315D+01 1.17919580D+00 3.21832532D+01
                 2.73076244D-01-4.93138422D-02 1.11957682D+01
 Full mass-weighted force constant matrix:
 Low frequencies ---   -0.0001    0.0008    0.0011    6.6103   10.4283   21.4651
 Low frequencies ---  265.0750  292.1139  480.1486
 Harmonic frequencies (cm**-1), IR intensities (KM/Mole), Raman scattering
 activities (A**4/AMU), depolarization ratios for plane and unpolarized
 incident light, reduced masses (AMU), force constants (mDyne/A),
 and normal coordinates:
                     1                      2                      3
                     A                      A                      A
 Frequencies --   265.0741               292.1131               480.1486
 Red. masses --     3.1010                 3.4459                 4.0234
 Frc consts  --     0.1284                 0.1732                 0.5465
 IR Inten    --     2.8216                 4.6482                 2.5575
  Atom  AN      X      Y      Z        X      Y      Z        X      Y      Z
     1   8     0.00   0.00   0.21    -0.09   0.21   0.00     0.27  -0.05   0.00
     2   6     0.00   0.00   0.17    -0.06   0.16   0.00    -0.28   0.01   0.00
     3   6     0.00   0.00  -0.21     0.09  -0.21   0.00    -0.14  -0.17   0.00
     4   6     0.00   0.00  -0.23     0.07  -0.25   0.00     0.12   0.19   0.00
     5   1     0.00   0.00  -0.56     0.30  -0.23   0.00     0.29   0.16   0.00
     6   1     0.00   0.00  -0.39     0.28  -0.23   0.00    -0.28  -0.14   0.00
     7   1     0.00   0.00   0.40     0.17   0.49   0.00    -0.07   0.31   0.00
     8   1     0.00   0.00   0.45    -0.46   0.22   0.00    -0.66   0.07   0.00
                     4                      5                      6
                     A                      A                      A
 Frequencies --   531.6452               725.5198               802.6614
 Red. masses --     1.0752                 1.8646                 1.3251
 Frc consts  --     0.1791                 0.5783                 0.5030
 IR Inten    --    24.5344                39.7023                49.5168
  Atom  AN      X      Y      Z        X      Y      Z        X      Y      Z
     1   8     0.00   0.00   0.01     0.00   0.00  -0.02     0.00   0.00   0.02
     2   6     0.00   0.00   0.01     0.00   0.00   0.17     0.00   0.00   0.08
     3   6     0.00   0.00  -0.07     0.00   0.00  -0.18     0.00   0.00   0.11
     4   6     0.00   0.00  -0.02     0.00   0.00   0.13     0.00   0.00  -0.10
     5   1     0.00   0.00   0.55     0.00   0.00  -0.41     0.00   0.00   0.21
     6   1     0.00   0.00   0.10     0.00   0.00   0.33     0.00   0.00  -0.69
     7   1     0.00   0.00   0.67     0.00   0.00  -0.40     0.00   0.00  -0.38
     8   1     0.00   0.00  -0.48     0.00   0.00  -0.69     0.00   0.00  -0.56
                     7                      8                      9
                     A                      A                      A
 Frequencies --   911.9870              1077.0176              1190.3594
 Red. masses --     2.0029                 1.8169                 1.3067
 Frc consts  --     0.9815                 1.2417                 1.0909
 IR Inten    --     4.0122                28.7619                 1.9444
  Atom  AN      X      Y      Z        X      Y      Z        X      Y      Z
     1   8     0.13   0.05   0.00    -0.12  -0.07   0.00     0.01  -0.02   0.00
     2   6    -0.12   0.08   0.00    -0.04   0.08   0.00     0.08   0.00   0.00
     3   6    -0.07   0.08   0.00     0.05  -0.11   0.00    -0.09   0.07   0.00
     4   6     0.00  -0.17   0.00     0.06   0.15   0.00    -0.06  -0.06   0.00
     5   1     0.14  -0.16   0.00     0.67   0.12   0.00     0.88  -0.06   0.01
     6   1     0.18   0.06   0.00     0.40  -0.14   0.00    -0.34   0.09   0.01
     7   1    -0.54  -0.51   0.00    -0.27  -0.26   0.00     0.21   0.17   0.00
     8   1     0.53  -0.03   0.00     0.40   0.01   0.00    -0.04   0.03   0.00
                    10                     11                     12
                     A                      A                      A
 Frequencies --  1248.2956              1271.8819              1406.3130
 Red. masses --     2.5635                 2.8284                 1.7431
 Frc consts  --     2.3535                 2.6958                 2.0311
 IR Inten    --    13.5065                 4.4745                 2.5364
  Atom  AN      X      Y      Z        X      Y      Z        X      Y      Z
     1   8     0.07   0.03   0.00    -0.13  -0.04   0.00     0.00   0.00   0.00
     2   6     0.14   0.16   0.00     0.02   0.08   0.00    -0.05   0.03   0.00
     3   6    -0.09  -0.24   0.00    -0.11   0.03   0.00     0.24  -0.01   0.00
     4   6    -0.14   0.04   0.00     0.35  -0.05   0.00    -0.09   0.00   0.00
     5   1    -0.32   0.05   0.01    -0.22  -0.08   0.00     0.13   0.01  -0.01
     6   1    -0.49  -0.22   0.01    -0.85   0.10   0.00    -0.77   0.08  -0.01
     7   1     0.10   0.04  -0.01    -0.10  -0.08   0.00    -0.35  -0.36   0.01
     8   1     0.67   0.09   0.00     0.16   0.06   0.00    -0.25   0.04   0.00
                    13                     14                     15
                     A                      A                      A
 Frequencies --  1500.5400              2496.4566              2985.1819
 Red. masses --     1.4203                 1.2741                 1.0763
 Frc consts  --     1.8842                 4.6784                 5.6511
 IR Inten    --    11.5603               126.7763                 4.4449
  Atom  AN      X      Y      Z        X      Y      Z        X      Y      Z
     1   8     0.01   0.00   0.00     0.00   0.00  -0.03     0.00   0.00   0.00
     2   6     0.16   0.06   0.00     0.00   0.00  -0.06     0.00   0.00   0.00
     3   6    -0.10  -0.03   0.00     0.00   0.00   0.03     0.00   0.00   0.00
     4   6     0.00   0.01   0.00     0.00   0.00   0.14     0.00   0.08   0.00
     5   1    -0.03   0.01   0.01     0.01   0.00  -0.56    -0.02  -1.00   0.00
     6   1     0.19  -0.06   0.01     0.00   0.00  -0.60     0.00   0.03   0.00
     7   1    -0.31  -0.58  -0.01     0.01   0.00   0.52     0.02  -0.01   0.00
     8   1    -0.68   0.18   0.00     0.00   0.01  -0.17     0.00   0.01   0.00
                    16                     17                     18
                     A                      A                      A
 Frequencies --  3099.2170              3104.7839              3195.2209
 Red. masses --     1.0577                 1.0850                 1.1151
 Frc consts  --     5.9855                 6.1621                 6.7077
 IR Inten    --    10.2815                 1.1506                15.2949
  Atom  AN      X      Y      Z        X      Y      Z        X      Y      Z
     1   8     0.00   0.00   0.00     0.00   0.00   0.00     0.00   0.00   0.00
     2   6    -0.05  -0.03   0.00     0.02   0.03   0.00    -0.05   0.09   0.00
     3   6     0.00  -0.04   0.00    -0.01  -0.08   0.00     0.00   0.01   0.00
     4   6     0.00   0.00   0.00     0.00   0.00   0.00     0.00   0.00   0.00
     5   1     0.00   0.03   0.00     0.00   0.02   0.00     0.00   0.00   0.00
     6   1     0.04   0.45   0.00     0.08   0.87   0.00    -0.01  -0.11   0.00
     7   1     0.47  -0.36   0.00    -0.17   0.13   0.00     0.64  -0.45   0.00
     8   1     0.09   0.66   0.00    -0.06  -0.42   0.00    -0.10  -0.60   0.00

 -------------------
 - Thermochemistry -
 -------------------
 Temperature   298.150 Kelvin.  Pressure   1.00000 Atm.
 Atom     1 has atomic number  8 and mass  15.99491
 Atom     2 has atomic number  6 and mass  12.00000
 Atom     3 has atomic number  6 and mass  12.00000
 Atom     4 has atomic number  6 and mass  12.00000
 Atom     5 has atomic number  1 and mass   1.00783
 Atom     6 has atomic number  1 and mass   1.00783
 Atom     7 has atomic number  1 and mass   1.00783
 Atom     8 has atomic number  1 and mass   1.00783
 Molecular mass:    56.02621 amu.
 Principal axes and moments of inertia in atomic units:
                           1         2         3
     Eigenvalues --    36.08610 422.77368 458.85978
           X            0.99967  -0.02578   0.00000
           Y            0.02578   0.99967   0.00002
           Z           -0.00001  -0.00002   1.00000
 This molecule is an asymmetric top.
 Rotational symmetry number  1.
 Rotational temperatures (Kelvin)      2.40020     0.20487     0.18876
 Rotational constants (GHZ):          50.01209     4.26881     3.93310
 Zero-point vibrational energy     159010.1 (Joules/Mol)
                                   38.00433 (Kcal/Mol)
 Warning -- explicit consideration of   4 degrees of freedom as
           vibrations may cause significant error
 Vibrational temperatures:    381.38   420.29   690.83   764.92  1043.86
          (Kelvin)           1154.85  1312.14  1549.59  1712.66  1796.02
                             1829.95  2023.37  2158.94  3591.84  4295.01
                             4459.08  4467.09  4597.20
 
 Zero-point correction=                           0.060564 (Hartree/Particle)
 Thermal correction to Energy=                    0.065048
 Thermal correction to Enthalpy=                  0.065993
 Thermal correction to Gibbs Free Energy=         0.033284
 Sum of electronic and zero-point Energies=           -191.640340
 Sum of electronic and thermal Energies=              -191.635856
 Sum of electronic and thermal Enthalpies=            -191.634912
 Sum of electronic and thermal Free Energies=         -191.667621
 
                     E (Thermal)             CV                S
                      KCal/Mol        Cal/Mol-Kelvin    Cal/Mol-Kelvin
 Total                   40.818             14.802             68.842
 Electronic               0.000              0.000              2.183
 Translational            0.889              2.981             37.991
 Rotational               0.889              2.981             23.464
 Vibrational             39.041              8.841              5.204
 Vibration     1          0.671              1.737              1.628
 Vibration     2          0.687              1.688              1.462
 Vibration     3          0.837              1.294              0.710
 Vibration     4          0.887              1.180              0.584
                       Q            Log10(Q)             Ln(Q)
 Total Bot       0.490527D-15        -15.309337        -35.251052
 Total V=0       0.353182D+13         12.547998         28.892833
 Vib (Bot)       0.331199D-27        -27.479911        -63.274834
 Vib (Bot)    1  0.730902D+00         -0.136141         -0.313476
 Vib (Bot)    2  0.653899D+00         -0.184489         -0.424803
 Vib (Bot)    3  0.348278D+00         -0.458074         -1.054754
 Vib (Bot)    4  0.300358D+00         -0.522361         -1.202781
 Vib (V=0)       0.238465D+01          0.377424          0.869052
 Vib (V=0)    1  0.138556D+01          0.141626          0.326105
 Vib (V=0)    2  0.132315D+01          0.121611          0.280019
 Vib (V=0)    3  0.110934D+01          0.045065          0.103767
 Vib (V=0)    4  0.108328D+01          0.034740          0.079993
 Electronic      0.300000D+01          0.477121          1.098612
 Translational   0.164832D+08          7.217042         16.617854
 Rotational      0.299509D+05          4.476410         10.307316

 ----------------------------------------------------------------------
 Using the following non-standard input for DiNa:
 EMISSION JIdent PRTMAT=12 SPECHWHM=50. SPECRES=10. SPECMIN=-15000 SPECMAX=+15000
 --- end of non-standard input.

 ----------------------------------------------------------------------
 Harmonic vibro-rotational analysis
 ----------------------------------------------------------------------
 Asymmetric Top with C1   Symmetry
 Inertia Moments (amu-Ang**2) Ia:    10.10514 Ib:   118.38869 Ic:   128.49382
 Rotational Constants (cm-1)   a:     1.66822  b:     0.14239  c:     0.13119
 Rotational Constants (GHz)    a:    50.01209  b:     4.26881  c:     3.93310
  100 Coriolis couplings larger than .100D-02 along the X axis
  110 Coriolis couplings larger than .100D-02 along the Y axis
   91 Coriolis couplings larger than .100D-02 along the Z axis

Contributions to Zero Point Energy (cm-1)
 Watson:-0.48545D+00 Coriolis-0.49201D+01 Total-0.54056D+01
 Coriolis contributions to Xmat 
                1             2             3             4             5 
      1  0.000000D+00
      2  0.123134D-03  0.000000D+00
      3  0.281099D-03  0.552550D-04  0.000000D+00
      4  0.297046D-05  0.182411D-04  0.157904D-04  0.000000D+00
      5  0.664608D-01  0.480856D+00  0.909283D+00  0.108353D+01  0.000000D+00
      6  0.258795D+00  0.445315D-01  0.478302D-03  0.514811D-03  0.258050D+00
      7  0.739019D-01  0.154330D+00  0.156357D-01  0.987834D-02  0.144343D+00
      8  0.251519D-02  0.727588D-01  0.283044D-02  0.322482D-01  0.163316D+00
      9  0.487998D-02  0.522370D-01  0.916930D-02  0.493543D-02  0.118453D-02
     10  0.107315D-02  0.293923D-02  0.253529D-01  0.250130D+00  0.305931D-01
     11  0.382360D-04  0.320107D-03  0.117563D+00  0.706378D-01  0.752505D-01
     12  0.367673D-02  0.107139D-01  0.225828D+00  0.321516D-02  0.653637D+00
     13  0.229674D+01  0.111812D+01  0.183541D+01  0.508486D+00  0.000000D+00
     14  0.191358D+01  0.201769D+01  0.136065D+00  0.109912D+01  0.213600D-04
     15  0.170409D+00  0.177734D+01  0.195597D+01  0.283364D+01  0.119784D-03
     16  0.205322D-03  0.283611D-02  0.563543D-01  0.499072D-02  0.304170D+00
     17  0.245869D-02  0.604566D-01  0.605096D-01  0.256054D-01  0.146745D+00
     18  0.385872D+00  0.334189D+00  0.637805D-02  0.694581D+00  0.243029D-03
                6             7             8             9            10 
      6  0.000000D+00
      7  0.771373D-03  0.000000D+00
      8  0.657529D-03  0.256642D-04  0.000000D+00
      9  0.458455D-02  0.278991D-01  0.947697D-02  0.000000D+00
     10  0.196222D-02  0.281364D-02  0.673342D-02  0.206136D-01  0.000000D+00
     11  0.199382D-02  0.152209D-01  0.483217D-01  0.190548D-02  0.314580D-02
     12  0.841673D-03  0.604185D-02  0.269360D-01  0.612683D-02  0.665313D-04
     13  0.969985D-01  0.212822D+00  0.592406D-02  0.968950D-02  0.294328D-01
     14  0.309588D+00  0.125945D+00  0.274454D-01  0.406917D+00  0.118711D+00
     15  0.728009D+00  0.169427D+00  0.421187D-01  0.900887D-01  0.143321D+00
     16  0.388877D-02  0.211383D-01  0.113237D+00  0.609898D-03  0.297632D-01
     17  0.333558D-01  0.203330D-01  0.445184D-01  0.274591D+00  0.323396D-01
     18  0.437039D-02  0.427156D-01  0.330770D-01  0.141513D+01  0.170250D-01
               11            12            13            14            15 
     11  0.000000D+00
     12  0.145633D-02  0.000000D+00
     13  0.176573D-01  0.388002D+00  0.000000D+00
     14  0.461272D+00  0.649380D-02  0.000000D+00  0.000000D+00
     15  0.134036D-01  0.355530D+00  0.121418D-05  0.000000D+00  0.000000D+00
     16  0.189207D-02  0.436197D-02  0.156719D+00  0.800612D-01  0.114377D+00
     17  0.960718D-01  0.145133D-01  0.416509D-02  0.441752D-03  0.164213D+00
     18  0.299513D+00  0.227953D+00  0.174890D-05  0.000000D+00  0.000000D+00
               16            17            18 
     16  0.000000D+00
     17  0.359486D-03  0.000000D+00
     18  0.280771D-02  0.251314D+01  0.000000D+00

 Coriolis contributions to Vibro-Rot Alpha  Matrix (cm-1)
              X           Y           Z 
 Q( 1)     0.00347     0.00002     0.00004                    
 Q( 2)     0.00617     0.00000     0.00004                    
 Q( 3)     0.00756     0.00001     0.00004                    
 Q( 4)     0.01064     0.00000     0.00004                    
 Q( 5)    -0.01253     0.00004     0.00000                    
 Q( 6)     0.00173     0.00007    -0.00003                    
 Q( 7)     0.00038     0.00012     0.00003                    
 Q( 8)     0.00007    -0.00001     0.00023                    
 Q( 9)     0.00458     0.00006    -0.00002                    
 Q(10)     0.00073     0.00007    -0.00014                    
 Q(11)     0.00448     0.00004    -0.00009                    
 Q(12)     0.01359     0.00006    -0.00005                    
 Q(13)    -0.01768    -0.00018     0.00000                    
 Q(14)    -0.01347    -0.00014     0.00000                    
 Q(15)    -0.00570     0.00000     0.00000                    
 Q(16)    -0.00915    -0.00011    -0.00006                    
 Q(17)     0.30184     0.00044    -0.00015                    
 Q(18)    -0.31061    -0.00061     0.00000                    
 Average Normal Coordinates 
  <Q**2>(0)    <Q**2>(298)  <Q**2>(298) class.
  0.005276       0.005276       0.000684
  0.005430       0.005430       0.000725
  0.005439       0.005439       0.000727
  0.005647       0.005647       0.000784
  0.006753       0.006753       0.001121
  0.011234       0.011250       0.003103
  0.011987       0.012014       0.003533
  0.013254       0.013311       0.004319
  0.013505       0.013570       0.004484
  0.014162       0.014253       0.004931
  0.015652       0.015826       0.006023
  0.018485       0.018944       0.008400
  0.021002       0.021894       0.010844
  0.023235       0.024681       0.013273
  0.031708       0.036990       0.024719
  0.035109       0.042787       0.030305
  0.057709       0.095007       0.081878
  0.063596       0.112636       0.099434
 Mean Square Amplitudes of Cartesian Coords.
     Label     <(S-Se)**2>**1/2 (0)     <(S-Se)**2>**1/2 (298)
 X(1)  (Angs)        0.071489                 0.078253
 Y(1)  (Angs)        0.062151                 0.077939
 Z(2)  (Angs)        0.064442                 0.085345
 X(2)  (Angs)        0.066169                 0.070905
 Y(2)  (Angs)        0.050985                 0.059431
 Z(3)  (Angs)        0.060932                 0.073665
 X(3)  (Angs)        0.058876                 0.062329
 Y(3)  (Angs)        0.072405                 0.084346
 Z(4)  (Angs)        0.075125                 0.091033
 X(4)  (Angs)        0.058169                 0.060646
 Y(4)  (Angs)        0.079525                 0.093884
 Z(5)  (Angs)        0.073201                 0.091035
 X(5)  (Angs)        0.066110                 0.068705
 Y(5)  (Angs)        0.043767                 0.045789
 Z(6)  (Angs)        0.075088                 0.086695
 X(6)  (Angs)        0.062747                 0.065028
 Y(6)  (Angs)        0.043265                 0.045238
 Z(7)  (Angs)        0.063061                 0.069078
 X(7)  (Angs)        0.050982                 0.052065
 Y(7)  (Angs)        0.061497                 0.067663
 Z(8)  (Angs)        0.079279                 0.087612
 X(8)  (Angs)        0.071219                 0.077323
 Y(8)  (Angs)        0.041210                 0.043005
 Z(9)  (Angs)        0.078737                 0.087090
 
                    Gaussian Orientation                    
 ---------------------------------------------------------------------
 Center     Atomic                     Coordinates (Angstroms)
 Number     Number                        X           Y           Z
 ---------------------------------------------------------------------
      1          8                   -1.900235   -0.167316    0.000034
      2          6                    1.830464    0.160063    0.000006
      3          6                    0.556890   -0.401155   -0.000020
      4          6                   -0.646364    0.339148   -0.000050
      5          1                   -0.646501    1.443697    0.000013
      6          1                    0.450083   -1.490964    0.000003
      7          1                    2.716299   -0.476218    0.000012
      8          1                    1.991132    1.240866    0.000004
 ---------------------------------------------------------------------
                     Eckart Orientation                     
 ---------------------------------------------------------------------
 Center     Atomic                     Coordinates (Angstroms)
 Number     Number                        X           Y           Z
 ---------------------------------------------------------------------
      1          8                   -0.106696    0.000026   -1.815132
      2          6                    0.124395    0.000022    1.922767
      3          6                   -0.403803   -0.000020    0.635148
      4          6                    0.367274   -0.000044   -0.548621
      5          1                    1.471460    0.000037   -0.520282
      6          1                   -1.490497   -0.000014    0.500280
      7          1                   -0.534512    0.000022    2.791904
      8          1                    1.200696    0.000038    2.111245
 ---------------------------------------------------------------------

 **********************************************************************

             Generation of the Franck-Condon spectrum

 **********************************************************************

 Approx. of the electronic transition dipole moment: FC
 Type of transition requested: ONE-PHOTON EMISSION

 Data for initial state taken from current calculation.
 Passed-in normal modes used.
 Data for   final state taken from checkpoint file "s0-freq.chk"
 Normal modes recovered from file.

 No electronic transition dipole moment has been found.
 A fully-allowed transition is assumed for FC calculations.
 Using excited electronic state number  0.
 WARNING: Multiplicity is different between initial and final state.
          Gaussian will assume that the transition is fully-allowed for
          the FC calculations.

 Initial state structure is set in Eckart orientation.
 Final state structure is superposed to it.
              New orientation in initial state              
 ---------------------------------------------------------------------
 Center     Atomic                     Coordinates (Angstroms)
 Number     Number                        X           Y           Z
 ---------------------------------------------------------------------
      1          8                   -1.811778   -0.153456    0.000037
      2          6                    1.918921    0.173923    0.000009
      3          6                    0.645347   -0.387295   -0.000017
      4          6                   -0.557907    0.353008   -0.000047
      5          1                   -0.558044    1.457557    0.000016
      6          1                    0.538540   -1.477104    0.000006
      7          1                    2.804756   -0.462358    0.000015
      8          1                    2.079589    1.254726    0.000007
 ---------------------------------------------------------------------
               New orientation in final state               
 ---------------------------------------------------------------------
 Center     Atomic                     Coordinates (Angstroms)
 Number     Number                        X           Y           Z
 ---------------------------------------------------------------------
      1          8                   -1.747160   -0.139954    0.000010
      2          6                    1.866531    0.176644   -0.000011
      3          6                    0.652268   -0.423777    0.000003
      4          6                   -0.597025    0.363320   -0.000003
      5          1                   -0.456980    1.472136   -0.000020
      6          1                    0.543427   -1.512872    0.000020
      7          1                    2.800362   -0.389827   -0.000007
      8          1                    1.959656    1.268323   -0.000028
 ---------------------------------------------------------------------

 --------------------------------------------------
    Printing matrices as requested
 --------------------------------------------------

   Duschinsky Matrix
  ------------------------------
                 1             2             3             4             5 
      1   0.100000D+01  0.000000D+00  0.000000D+00  0.000000D+00  0.000000D+00
      2   0.000000D+00  0.100000D+01  0.000000D+00  0.000000D+00  0.000000D+00
      3   0.000000D+00  0.000000D+00  0.100000D+01  0.000000D+00  0.000000D+00
      4   0.000000D+00  0.000000D+00  0.000000D+00  0.100000D+01  0.000000D+00
      5   0.000000D+00  0.000000D+00  0.000000D+00  0.000000D+00  0.100000D+01
      6   0.000000D+00  0.000000D+00  0.000000D+00  0.000000D+00  0.000000D+00
      7   0.000000D+00  0.000000D+00  0.000000D+00  0.000000D+00  0.000000D+00
      8   0.000000D+00  0.000000D+00  0.000000D+00  0.000000D+00  0.000000D+00
      9   0.000000D+00  0.000000D+00  0.000000D+00  0.000000D+00  0.000000D+00
     10   0.000000D+00  0.000000D+00  0.000000D+00  0.000000D+00  0.000000D+00
     11   0.000000D+00  0.000000D+00  0.000000D+00  0.000000D+00  0.000000D+00
     12   0.000000D+00  0.000000D+00  0.000000D+00  0.000000D+00  0.000000D+00
     13   0.000000D+00  0.000000D+00  0.000000D+00  0.000000D+00  0.000000D+00
     14   0.000000D+00  0.000000D+00  0.000000D+00  0.000000D+00  0.000000D+00
     15   0.000000D+00  0.000000D+00  0.000000D+00  0.000000D+00  0.000000D+00
     16   0.000000D+00  0.000000D+00  0.000000D+00  0.000000D+00  0.000000D+00
     17   0.000000D+00  0.000000D+00  0.000000D+00  0.000000D+00  0.000000D+00
     18   0.000000D+00  0.000000D+00  0.000000D+00  0.000000D+00  0.000000D+00
                 6             7             8             9            10 
      1   0.000000D+00  0.000000D+00  0.000000D+00  0.000000D+00  0.000000D+00
      2   0.000000D+00  0.000000D+00  0.000000D+00  0.000000D+00  0.000000D+00
      3   0.000000D+00  0.000000D+00  0.000000D+00  0.000000D+00  0.000000D+00
      4   0.000000D+00  0.000000D+00  0.000000D+00  0.000000D+00  0.000000D+00
      5   0.000000D+00  0.000000D+00  0.000000D+00  0.000000D+00  0.000000D+00
      6   0.100000D+01  0.000000D+00  0.000000D+00  0.000000D+00  0.000000D+00
      7   0.000000D+00  0.100000D+01  0.000000D+00  0.000000D+00  0.000000D+00
      8   0.000000D+00  0.000000D+00  0.100000D+01  0.000000D+00  0.000000D+00
      9   0.000000D+00  0.000000D+00  0.000000D+00  0.100000D+01  0.000000D+00
     10   0.000000D+00  0.000000D+00  0.000000D+00  0.000000D+00  0.100000D+01
     11   0.000000D+00  0.000000D+00  0.000000D+00  0.000000D+00  0.000000D+00
     12   0.000000D+00  0.000000D+00  0.000000D+00  0.000000D+00  0.000000D+00
     13   0.000000D+00  0.000000D+00  0.000000D+00  0.000000D+00  0.000000D+00
     14   0.000000D+00  0.000000D+00  0.000000D+00  0.000000D+00  0.000000D+00
     15   0.000000D+00  0.000000D+00  0.000000D+00  0.000000D+00  0.000000D+00
     16   0.000000D+00  0.000000D+00  0.000000D+00  0.000000D+00  0.000000D+00
     17   0.000000D+00  0.000000D+00  0.000000D+00  0.000000D+00  0.000000D+00
     18   0.000000D+00  0.000000D+00  0.000000D+00  0.000000D+00  0.000000D+00
                11            12            13            14            15 
      1   0.000000D+00  0.000000D+00  0.000000D+00  0.000000D+00  0.000000D+00
      2   0.000000D+00  0.000000D+00  0.000000D+00  0.000000D+00  0.000000D+00
      3   0.000000D+00  0.000000D+00  0.000000D+00  0.000000D+00  0.000000D+00
      4   0.000000D+00  0.000000D+00  0.000000D+00  0.000000D+00  0.000000D+00
      5   0.000000D+00  0.000000D+00  0.000000D+00  0.000000D+00  0.000000D+00
      6   0.000000D+00  0.000000D+00  0.000000D+00  0.000000D+00  0.000000D+00
      7   0.000000D+00  0.000000D+00  0.000000D+00  0.000000D+00  0.000000D+00
      8   0.000000D+00  0.000000D+00  0.000000D+00  0.000000D+00  0.000000D+00
      9   0.000000D+00  0.000000D+00  0.000000D+00  0.000000D+00  0.000000D+00
     10   0.000000D+00  0.000000D+00  0.000000D+00  0.000000D+00  0.000000D+00
     11   0.100000D+01  0.000000D+00  0.000000D+00  0.000000D+00  0.000000D+00
     12   0.000000D+00  0.100000D+01  0.000000D+00  0.000000D+00  0.000000D+00
     13   0.000000D+00  0.000000D+00  0.100000D+01  0.000000D+00  0.000000D+00
     14   0.000000D+00  0.000000D+00  0.000000D+00  0.100000D+01  0.000000D+00
     15   0.000000D+00  0.000000D+00  0.000000D+00  0.000000D+00  0.100000D+01
     16   0.000000D+00  0.000000D+00  0.000000D+00  0.000000D+00  0.000000D+00
     17   0.000000D+00  0.000000D+00  0.000000D+00  0.000000D+00  0.000000D+00
     18   0.000000D+00  0.000000D+00  0.000000D+00  0.000000D+00  0.000000D+00
                16            17            18 
      1   0.000000D+00  0.000000D+00  0.000000D+00
      2   0.000000D+00  0.000000D+00  0.000000D+00
      3   0.000000D+00  0.000000D+00  0.000000D+00
      4   0.000000D+00  0.000000D+00  0.000000D+00
      5   0.000000D+00  0.000000D+00  0.000000D+00
      6   0.000000D+00  0.000000D+00  0.000000D+00
      7   0.000000D+00  0.000000D+00  0.000000D+00
      8   0.000000D+00  0.000000D+00  0.000000D+00
      9   0.000000D+00  0.000000D+00  0.000000D+00
     10   0.000000D+00  0.000000D+00  0.000000D+00
     11   0.000000D+00  0.000000D+00  0.000000D+00
     12   0.000000D+00  0.000000D+00  0.000000D+00
     13   0.000000D+00  0.000000D+00  0.000000D+00
     14   0.000000D+00  0.000000D+00  0.000000D+00
     15   0.000000D+00  0.000000D+00  0.000000D+00
     16   0.100000D+01  0.000000D+00  0.000000D+00
     17   0.000000D+00  0.100000D+01  0.000000D+00
     18   0.000000D+00  0.000000D+00  0.100000D+01

   Shift Vector
  ------------------------------
                 1 
      1  -0.179142D-01
      2  -0.725359D+01
      3   0.243115D+02
      4  -0.177885D-01
      5  -0.406560D-02
      6  -0.177699D-01
      7  -0.426841D+01
      8  -0.390025D+01
      9   0.292478D+01
     10  -0.295917D+01
     11  -0.189880D+02
     12   0.693388D+01
     13   0.289600D+01
     14   0.962767D-02
     15   0.145481D+00
     16   0.247990D-01
     17  -0.784210D-01
     18  -0.111865D+00

 --------------------------------------------------
    Overlap integrals computation
 --------------------------------------------------

 Energy of the 0-0 transition:  21314.6143 cm^(-1)

 Notes about the overlap integrals description:
  - DeltaE is the relative energy of the transition (wrt 0-0)
  - FCI is the Franck-Condon Integral
  - Intensity is the line intensity (absolute value)

 -- To: vibronic fundamental state --

Initial State: <0|
Final State: |0>
     DeltaE =     0.0000 | TDMI**2 = 0.1120    , Intensity =  353.8    
   ........................................
  --------------------
 ++ Spectrum progression:  11.20%

 -- To: single overtones --

Initial State: <0|
Final State: |3^1>
     DeltaE =  -558.9017 | TDMI**2 = 0.7198E-01, Intensity =  204.4    
   ........................................
Initial State: <0|
Final State: |3^2>
     DeltaE = -1117.8035 | TDMI**2 = 0.2891E-01, Intensity =  73.55    
   ........................................
Initial State: <0|
Final State: |11^1>
     DeltaE = -1379.7055 | TDMI**2 = 0.1168    , Intensity =  282.4    
   ........................................
Initial State: <0|
Final State: |11^2>
     DeltaE = -2759.4110 | TDMI**2 = 0.6574E-01, Intensity =  119.3    
   ........................................
Initial State: <0|
Final State: |11^3>
     DeltaE = -4139.1165 | TDMI**2 = 0.2642E-01, Intensity =  35.19    
   ........................................
Initial State: <0|
Final State: |12^1>
     DeltaE = -1447.4216 | TDMI**2 = 0.1724E-01, Intensity =  41.05    
   ........................................
  --------------------
 ++ Spectrum progression:  49.25%

 -- To: combinations of  2 simultaneously excited modes --

Initial State: <0|
Final State: |11^1;3^1>
     DeltaE = -1938.6073 | TDMI**2 = 0.7507E-01, Intensity =  161.9    
   ........................................
Initial State: <0|
Final State: |11^2;3^1>
     DeltaE = -3318.3128 | TDMI**2 = 0.4226E-01, Intensity =  67.81    
   ........................................
Initial State: <0|
Final State: |11^3;3^1>
     DeltaE = -4698.0183 | TDMI**2 = 0.1698E-01, Intensity =  19.80    
   ........................................
Initial State: <0|
Final State: |11^1;3^2>
     DeltaE = -2497.5090 | TDMI**2 = 0.3015E-01, Intensity =  57.78    
   ........................................
Initial State: <0|
Final State: |11^2;3^2>
     DeltaE = -3877.2145 | TDMI**2 = 0.1697E-01, Intensity =  23.97    
   ........................................
Initial State: <0|
Final State: |12^1;3^1>
     DeltaE = -2006.3234 | TDMI**2 = 0.1108E-01, Intensity =  23.50    
   ........................................
Initial State: <0|
Final State: |12^1;11^1>
     DeltaE = -2827.1271 | TDMI**2 = 0.1799E-01, Intensity =  32.09    
   ........................................
Initial State: <0|
Final State: |12^1;11^2>
     DeltaE = -4206.8326 | TDMI**2 = 0.1012E-01, Intensity =  13.24    
   ........................................
  --------------------
 ++ Spectrum progression:  86.31%

 -- To: combinations of  3 simultaneously excited modes --

Initial State: <0|
Final State: |12^1;11^1;3^1>
     DeltaE = -3386.0289 | TDMI**2 = 0.1156E-01, Intensity =  18.21    
   ........................................
  --------------------
 ++ Spectrum progression:  98.06%

 -- To: combinations of  4 simultaneously excited modes --

  --------------------
 ++ Spectrum progression:  99.84%

 -- To: combinations of  5 simultaneously excited modes --

  --------------------
 ++ Spectrum progression:  99.99%

 -- To: combinations of  6 simultaneously excited modes --

  --------------------
 ++ Spectrum progression: 100.00%

 -- To: combinations of  7 simultaneously excited modes --

  --------------------
 ++ Spectrum progression: 100.00%


 +------------------+
 |  Final Spectrum  |
 +------------------+

 Axis X = Energy (in cm^-1)
 Axis Y = Emitted intensity by second (in microJ.mol^-1)

 ------------------------------------------------------------
        6314.6143        0.342117D-04
        6324.6143        0.355255D-04
        6334.6143        0.370366D-04
        6344.6143        0.387152D-04
        6354.6143        0.405203D-04
        6364.6143        0.423984D-04
        6374.6143        0.442839D-04
        6384.6143        0.461001D-04
        6394.6143        0.477643D-04
        6404.6143        0.491880D-04
        6414.6143        0.502870D-04
        6424.6143        0.509834D-04
        6434.6143        0.512179D-04
        6444.6143        0.509551D-04
        6454.6143        0.501983D-04
        6464.6143        0.489894D-04
        6474.6143        0.474179D-04
        6484.6143        0.456116D-04
        6494.6143        0.437182D-04
        6504.6143        0.418913D-04
        6514.6143        0.402740D-04
        6524.6143        0.389761D-04
        6534.6143        0.380732D-04
        6544.6143        0.376119D-04
        6554.6143        0.376161D-04
        6564.6143        0.380828D-04
        6574.6143        0.390017D-04
        6584.6143        0.403664D-04
        6594.6143        0.421500D-04
        6604.6143        0.443297D-04
        6614.6143        0.468843D-04
        6624.6143        0.497675D-04
        6634.6143        0.529280D-04
        6644.6143        0.563005D-04
        6654.6143        0.598136D-04
        6664.6143        0.633888D-04
        6674.6143        0.669531D-04
        6684.6143        0.704364D-04
        6694.6143        0.737598D-04
        6704.6143        0.768367D-04
        6714.6143        0.795656D-04
        6724.6143        0.818262D-04
        6734.6143        0.835093D-04
        6744.6143        0.845350D-04
        6754.6143        0.848714D-04
        6764.6143        0.845585D-04
        6774.6143        0.837072D-04
        6784.6143        0.824770D-04
        6794.6143        0.810520D-04
        6804.6143        0.796229D-04
        6814.6143        0.783710D-04
        6824.6143        0.774449D-04
        6834.6143        0.769758D-04
        6844.6143        0.770758D-04
        6854.6143        0.778093D-04
        6864.6143        0.792080D-04
        6874.6143        0.812539D-04
        6884.6143        0.838805D-04
        6894.6143        0.869752D-04
        6904.6143        0.903991D-04
        6914.6143        0.940064D-04
        6924.6143        0.976232D-04
        6934.6143        0.101067D-03
        6944.6143        0.104153D-03
        6954.6143        0.106665D-03
        6964.6143        0.108405D-03
        6974.6143        0.109228D-03
        6984.6143        0.109061D-03
        6994.6143        0.107957D-03
        7004.6143        0.106097D-03
        7014.6143        0.103753D-03
        7024.6143        0.101245D-03
        7034.6143        0.988915D-04
        7044.6143        0.969575D-04
        7054.6143        0.956090D-04
        7064.6143        0.949444D-04
        7074.6143        0.950216D-04
        7084.6143        0.958490D-04
        7094.6143        0.974472D-04
        7104.6143        0.998622D-04
        7114.6143        0.103129D-03
        7124.6143        0.107273D-03
        7134.6143        0.112315D-03
        7144.6143        0.118265D-03
        7154.6143        0.125083D-03
        7164.6143        0.132705D-03
        7174.6143        0.141047D-03
        7184.6143        0.149944D-03
        7194.6143        0.159194D-03
        7204.6143        0.168567D-03
        7214.6143        0.177784D-03
        7224.6143        0.186575D-03
        7234.6143        0.194671D-03
        7244.6143        0.201798D-03
        7254.6143        0.207670D-03
        7264.6143        0.211998D-03
        7274.6143        0.214510D-03
        7284.6143        0.214976D-03
        7294.6143        0.213302D-03
        7304.6143        0.209568D-03
        7314.6143        0.204042D-03
        7324.6143        0.197173D-03
        7334.6143        0.189541D-03
        7344.6143        0.181754D-03
        7354.6143        0.174382D-03
        7364.6143        0.167936D-03
        7374.6143        0.162841D-03
        7384.6143        0.159404D-03
        7394.6143        0.157843D-03
        7404.6143        0.158296D-03
        7414.6143        0.160721D-03
        7424.6143        0.164962D-03
        7434.6143        0.170793D-03
        7444.6143        0.177864D-03
        7454.6143        0.185837D-03
        7464.6143        0.194384D-03
        7474.6143        0.203213D-03
        7484.6143        0.211993D-03
        7494.6143        0.220372D-03
        7504.6143        0.227999D-03
        7514.6143        0.234486D-03
        7524.6143        0.239562D-03
        7534.6143        0.243106D-03
        7544.6143        0.245159D-03
        7554.6143        0.245946D-03
        7564.6143        0.245817D-03
        7574.6143        0.245170D-03
        7584.6143        0.244375D-03
        7594.6143        0.243785D-03
        7604.6143        0.243701D-03
        7614.6143        0.244343D-03
        7624.6143        0.245926D-03
        7634.6143        0.248691D-03
        7644.6143        0.252824D-03
        7654.6143        0.258558D-03
        7664.6143        0.266123D-03
        7674.6143        0.275699D-03
        7684.6143        0.287362D-03
        7694.6143        0.301099D-03
        7704.6143        0.316780D-03
        7714.6143        0.334105D-03
        7724.6143        0.352689D-03
        7734.6143        0.372055D-03
        7744.6143        0.391590D-03
        7754.6143        0.410591D-03
        7764.6143        0.428288D-03
        7774.6143        0.443773D-03
        7784.6143        0.456151D-03
        7794.6143        0.464566D-03
        7804.6143        0.468304D-03
        7814.6143        0.466910D-03
        7824.6143        0.460295D-03
        7834.6143        0.448754D-03
        7844.6143        0.433001D-03
        7854.6143        0.414130D-03
        7864.6143        0.393505D-03
        7874.6143        0.372548D-03
        7884.6143        0.352650D-03
        7894.6143        0.335061D-03
        7904.6143        0.320703D-03
        7914.6143        0.310226D-03
        7924.6143        0.304031D-03
        7934.6143        0.302315D-03
        7944.6143        0.305023D-03
        7954.6143        0.311985D-03
        7964.6143        0.323020D-03
        7974.6143        0.337718D-03
        7984.6143        0.355676D-03
        7994.6143        0.376521D-03
        8004.6143        0.399664D-03
        8014.6143        0.424526D-03
        8024.6143        0.450481D-03
        8034.6143        0.476896D-03
        8044.6143        0.503130D-03
        8054.6143        0.528617D-03
        8064.6143        0.552829D-03
        8074.6143        0.575169D-03
        8084.6143        0.595009D-03
        8094.6143        0.611672D-03
        8104.6143        0.624435D-03
        8114.6143        0.632823D-03
        8124.6143        0.636721D-03
        8134.6143        0.636462D-03
        8144.6143        0.632898D-03
        8154.6143        0.627274D-03
        8164.6143        0.620976D-03
        8174.6143        0.615317D-03
        8184.6143        0.611485D-03
        8194.6143        0.610508D-03
        8204.6143        0.613168D-03
        8214.6143        0.620185D-03
        8224.6143        0.632200D-03
        8234.6143        0.649493D-03
        8244.6143        0.672042D-03
        8254.6143        0.699420D-03
        8264.6143        0.730742D-03
        8274.6143        0.764823D-03
        8284.6143        0.800308D-03
        8294.6143        0.835804D-03
        8304.6143        0.869653D-03
        8314.6143        0.900022D-03
        8324.6143        0.924917D-03
        8334.6143        0.942058D-03
        8344.6143        0.949458D-03
        8354.6143        0.945814D-03
        8364.6143        0.930912D-03
        8374.6143        0.905951D-03
        8384.6143        0.873571D-03
        8394.6143        0.837285D-03
        8404.6143        0.800892D-03
        8414.6143        0.767872D-03
        8424.6143        0.740863D-03
        8434.6143        0.721308D-03
        8444.6143        0.709806D-03
        8454.6143        0.706524D-03
        8464.6143        0.711176D-03
        8474.6143        0.723651D-03
        8484.6143        0.744131D-03
        8494.6143        0.772709D-03
        8504.6143        0.809361D-03
        8514.6143        0.853943D-03
        8524.6143        0.906130D-03
        8534.6143        0.965094D-03
        8544.6143        0.102982D-02
        8554.6143        0.109920D-02
        8564.6143        0.117152D-02
        8574.6143        0.124493D-02
        8584.6143        0.131739D-02
        8594.6143        0.138661D-02
        8604.6143        0.145040D-02
        8614.6143        0.150665D-02
        8624.6143        0.155330D-02
        8634.6143        0.158839D-02
        8644.6143        0.161017D-02
        8654.6143        0.161733D-02
        8664.6143        0.160915D-02
        8674.6143        0.158613D-02
        8684.6143        0.155008D-02
        8694.6143        0.150399D-02
        8704.6143        0.145173D-02
        8714.6143        0.139760D-02
        8724.6143        0.134560D-02
        8734.6143        0.129910D-02
        8744.6143        0.126101D-02
        8754.6143        0.123377D-02
        8764.6143        0.121927D-02
        8774.6143        0.121895D-02
        8784.6143        0.123375D-02
        8794.6143        0.126312D-02
        8804.6143        0.130548D-02
        8814.6143        0.135857D-02
        8824.6143        0.141912D-02
        8834.6143        0.148412D-02
        8844.6143        0.155069D-02
        8854.6143        0.161626D-02
        8864.6143        0.167784D-02
        8874.6143        0.173212D-02
        8884.6143        0.177556D-02
        8894.6143        0.180465D-02
        8904.6143        0.181730D-02
        8914.6143        0.181349D-02
        8924.6143        0.179538D-02
        8934.6143        0.176728D-02
        8944.6143        0.173478D-02
        8954.6143        0.170350D-02
        8964.6143        0.167805D-02
        8974.6143        0.166191D-02
        8984.6143        0.165713D-02
        8994.6143        0.166438D-02
        9004.6143        0.168401D-02
        9014.6143        0.171672D-02
        9024.6143        0.176303D-02
        9034.6143        0.182428D-02
        9044.6143        0.190206D-02
        9054.6143        0.199759D-02
        9064.6143        0.211110D-02
        9074.6143        0.224181D-02
        9084.6143        0.238781D-02
        9094.6143        0.254571D-02
        9104.6143        0.271156D-02
        9114.6143        0.288082D-02
        9124.6143        0.304803D-02
        9134.6143        0.320699D-02
        9144.6143        0.335069D-02
        9154.6143        0.347103D-02
        9164.6143        0.356003D-02
        9174.6143        0.361051D-02
        9184.6143        0.361720D-02
        9194.6143        0.357801D-02
        9204.6143        0.349462D-02
        9214.6143        0.337223D-02
        9224.6143        0.321920D-02
        9234.6143        0.304598D-02
        9244.6143        0.286401D-02
        9254.6143        0.268404D-02
        9264.6143        0.251577D-02
        9274.6143        0.236757D-02
        9284.6143        0.224552D-02
        9294.6143        0.215406D-02
        9304.6143        0.209607D-02
        9314.6143        0.207320D-02
        9324.6143        0.208493D-02
        9334.6143        0.212960D-02
        9344.6143        0.220502D-02
        9354.6143        0.230699D-02
        9364.6143        0.243121D-02
        9374.6143        0.257384D-02
        9384.6143        0.272950D-02
        9394.6143        0.289335D-02
        9404.6143        0.306048D-02
        9414.6143        0.322615D-02
        9424.6143        0.338582D-02
        9434.6143        0.353562D-02
        9444.6143        0.367220D-02
        9454.6143        0.379205D-02
        9464.6143        0.389208D-02
        9474.6143        0.396959D-02
        9484.6143        0.402234D-02
        9494.6143        0.405052D-02
        9504.6143        0.405698D-02
        9514.6143        0.404714D-02
        9524.6143        0.402890D-02
        9534.6143        0.401129D-02
        9544.6143        0.400288D-02
        9554.6143        0.401051D-02
        9564.6143        0.404004D-02
        9574.6143        0.409676D-02
        9584.6143        0.418498D-02
        9594.6143        0.430935D-02
        9604.6143        0.447398D-02
        9614.6143        0.467994D-02
        9624.6143        0.492535D-02
        9634.6143        0.520451D-02
        9644.6143        0.550855D-02
        9654.6143        0.582676D-02
        9664.6143        0.614754D-02
        9674.6143        0.645896D-02
        9684.6143        0.674678D-02
        9694.6143        0.699417D-02
        9704.6143        0.718179D-02
        9714.6143        0.728853D-02
        9724.6143        0.729679D-02
        9734.6143        0.719693D-02
        9744.6143        0.699103D-02
        9754.6143        0.669500D-02
        9764.6143        0.633733D-02
        9774.6143        0.595301D-02
        9784.6143        0.557757D-02
        9794.6143        0.524139D-02
        9804.6143        0.496580D-02
        9814.6143        0.476101D-02
        9824.6143        0.462967D-02
        9834.6143        0.457110D-02
        9844.6143        0.458131D-02
        9854.6143        0.465811D-02
        9864.6143        0.480159D-02
        9874.6143        0.501076D-02
        9884.6143        0.528327D-02
        9894.6143        0.561497D-02
        9904.6143        0.600022D-02
        9914.6143        0.642944D-02
        9924.6143        0.689230D-02
        9934.6143        0.737864D-02
        9944.6143        0.787460D-02
        9954.6143        0.836583D-02
        9964.6143        0.883697D-02
        9974.6143        0.927078D-02
        9984.6143        0.965142D-02
        9994.6143        0.996396D-02
       10004.6143        0.101959D-01
       10014.6143        0.103378D-01
       10024.6143        0.103846D-01
       10034.6143        0.103363D-01
       10044.6143        0.101978D-01
       10054.6143        0.998247D-02
       10064.6143        0.970956D-02
       10074.6143        0.940281D-02
       10084.6143        0.908747D-02
       10094.6143        0.878790D-02
       10104.6143        0.852410D-02
       10114.6143        0.831081D-02
       10124.6143        0.816125D-02
       10134.6143        0.808756D-02
       10144.6143        0.810053D-02
       10154.6143        0.820908D-02
       10164.6143        0.841882D-02
       10174.6143        0.872423D-02
       10184.6143        0.911153D-02
       10194.6143        0.956153D-02
       10204.6143        0.100482D-01
       10214.6143        0.105483D-01
       10224.6143        0.110397D-01
       10234.6143        0.115015D-01
       10244.6143        0.119083D-01
       10254.6143        0.122307D-01
       10264.6143        0.124365D-01
       10274.6143        0.124971D-01
       10284.6143        0.123989D-01
       10294.6143        0.121502D-01
       10304.6143        0.117817D-01
       10314.6143        0.113434D-01
       10324.6143        0.108944D-01
       10334.6143        0.104899D-01
       10344.6143        0.101709D-01
       10354.6143        0.996317D-02
       10364.6143        0.987640D-02
       10374.6143        0.990782D-02
       10384.6143        0.100520D-01
       10394.6143        0.103088D-01
       10404.6143        0.106785D-01
       10414.6143        0.111696D-01
       10424.6143        0.117924D-01
       10434.6143        0.125531D-01
       10444.6143        0.134489D-01
       10454.6143        0.144678D-01
       10464.6143        0.155898D-01
       10474.6143        0.167851D-01
       10484.6143        0.180223D-01
       10494.6143        0.192665D-01
       10504.6143        0.204769D-01
       10514.6143        0.216052D-01
       10524.6143        0.225950D-01
       10534.6143        0.233815D-01
       10544.6143        0.239021D-01
       10554.6143        0.241061D-01
       10564.6143        0.239640D-01
       10574.6143        0.234781D-01
       10584.6143        0.226833D-01
       10594.6143        0.216401D-01
       10604.6143        0.204265D-01
       10614.6143        0.191255D-01
       10624.6143        0.178148D-01
       10634.6143        0.165582D-01
       10644.6143        0.154059D-01
       10654.6143        0.143994D-01
       10664.6143        0.135662D-01
       10674.6143        0.129307D-01
       10684.6143        0.125103D-01
       10694.6143        0.123170D-01
       10704.6143        0.123493D-01
       10714.6143        0.125955D-01
       10724.6143        0.130389D-01
       10734.6143        0.136476D-01
       10744.6143        0.143881D-01
       10754.6143        0.152310D-01
       10764.6143        0.161369D-01
       10774.6143        0.170713D-01
       10784.6143        0.179996D-01
       10794.6143        0.188892D-01
       10804.6143        0.197104D-01
       10814.6143        0.204406D-01
       10824.6143        0.210634D-01
       10834.6143        0.215662D-01
       10844.6143        0.219441D-01
       10854.6143        0.221987D-01
       10864.6143        0.223351D-01
       10874.6143        0.223736D-01
       10884.6143        0.223459D-01
       10894.6143        0.222932D-01
       10904.6143        0.222634D-01
       10914.6143        0.223049D-01
       10924.6143        0.224609D-01
       10934.6143        0.227619D-01
       10944.6143        0.232394D-01
       10954.6143        0.239264D-01
       10964.6143        0.248555D-01
       10974.6143        0.260619D-01
       10984.6143        0.275734D-01
       10994.6143        0.293911D-01
       11004.6143        0.314890D-01
       11014.6143        0.338157D-01
       11024.6143        0.362951D-01
       11034.6143        0.388462D-01
       11044.6143        0.413843D-01
       11054.6143        0.438194D-01
       11064.6143        0.460389D-01
       11074.6143        0.479007D-01
       11084.6143        0.492381D-01
       11094.6143        0.498750D-01
       11104.6143        0.496722D-01
       11114.6143        0.485680D-01
       11124.6143        0.466064D-01
       11134.6143        0.439457D-01
       11144.6143        0.408381D-01
       11154.6143        0.375746D-01
       11164.6143        0.344360D-01
       11174.6143        0.316491D-01
       11184.6143        0.293620D-01
       11194.6143        0.276368D-01
       11204.6143        0.264792D-01
       11214.6143        0.258727D-01
       11224.6143        0.257792D-01
       11234.6143        0.261736D-01
       11244.6143        0.270442D-01
       11254.6143        0.283699D-01
       11264.6143        0.301179D-01
       11274.6143        0.322405D-01
       11284.6143        0.346845D-01
       11294.6143        0.373718D-01
       11304.6143        0.402257D-01
       11314.6143        0.431750D-01
       11324.6143        0.461259D-01
       11334.6143        0.489800D-01
       11344.6143        0.516286D-01
       11354.6143        0.539521D-01
       11364.6143        0.558438D-01
       11374.6143        0.572150D-01
       11384.6143        0.580107D-01
       11394.6143        0.582164D-01
       11404.6143        0.578618D-01
       11414.6143        0.570154D-01
       11424.6143        0.557728D-01
       11434.6143        0.542592D-01
       11444.6143        0.526121D-01
       11454.6143        0.509667D-01
       11464.6143        0.494429D-01
       11474.6143        0.481434D-01
       11484.6143        0.471457D-01
       11494.6143        0.465016D-01
       11504.6143        0.462728D-01
       11514.6143        0.465276D-01
       11524.6143        0.473356D-01
       11534.6143        0.487546D-01
       11544.6143        0.508144D-01
       11554.6143        0.534667D-01
       11564.6143        0.566043D-01
       11574.6143        0.600839D-01
       11584.6143        0.637249D-01
       11594.6143        0.673667D-01
       11604.6143        0.708564D-01
       11614.6143        0.740353D-01
       11624.6143        0.767028D-01
       11634.6143        0.786144D-01
       11644.6143        0.795074D-01
       11654.6143        0.791607D-01
       11664.6143        0.774883D-01
       11674.6143        0.745938D-01
       11684.6143        0.707685D-01
       11694.6143        0.664550D-01
       11704.6143        0.621512D-01
       11714.6143        0.582945D-01
       11724.6143        0.552059D-01
       11734.6143        0.530584D-01
       11744.6143        0.518980D-01
       11754.6143        0.516769D-01
       11764.6143        0.523325D-01
       11774.6143        0.538449D-01
       11784.6143        0.562028D-01
       11794.6143        0.594471D-01
       11804.6143        0.636202D-01
       11814.6143        0.687273D-01
       11824.6143        0.747091D-01
       11834.6143        0.814434D-01
       11844.6143        0.887737D-01
       11854.6143        0.964922D-01
       11864.6143        0.104396D+00
       11874.6143        0.112263D+00
       11884.6143        0.119822D+00
       11894.6143        0.126732D+00
       11904.6143        0.132578D+00
       11914.6143        0.136895D+00
       11924.6143        0.139260D+00
       11934.6143        0.139374D+00
       11944.6143        0.137147D+00
       11954.6143        0.132740D+00
       11964.6143        0.126553D+00
       11974.6143        0.119127D+00
       11984.6143        0.111059D+00
       11994.6143        0.102889D+00
       12004.6143        0.950416D-01
       12014.6143        0.877900D-01
       12024.6143        0.812952D-01
       12034.6143        0.756749D-01
       12044.6143        0.709971D-01
       12054.6143        0.673534D-01
       12064.6143        0.648557D-01
       12074.6143        0.635733D-01
       12084.6143        0.635274D-01
       12094.6143        0.646663D-01
       12104.6143        0.668981D-01
       12114.6143        0.700328D-01
       12124.6143        0.738636D-01
       12134.6143        0.782032D-01
       12144.6143        0.828049D-01
       12154.6143        0.874479D-01
       12164.6143        0.919140D-01
       12174.6143        0.960009D-01
       12184.6143        0.995458D-01
       12194.6143        0.102447D+00
       12204.6143        0.104665D+00
       12214.6143        0.106208D+00
       12224.6143        0.107143D+00
       12234.6143        0.107568D+00
       12244.6143        0.107586D+00
       12254.6143        0.107349D+00
       12264.6143        0.107042D+00
       12274.6143        0.106865D+00
       12284.6143        0.107037D+00
       12294.6143        0.107783D+00
       12304.6143        0.109323D+00
       12314.6143        0.111830D+00
       12324.6143        0.115530D+00
       12334.6143        0.120683D+00
       12344.6143        0.127547D+00
       12354.6143        0.136369D+00
       12364.6143        0.147305D+00
       12374.6143        0.160310D+00
       12384.6143        0.175143D+00
       12394.6143        0.191413D+00
       12404.6143        0.208612D+00
       12414.6143        0.226228D+00
       12424.6143        0.243734D+00
       12434.6143        0.260529D+00
       12444.6143        0.275796D+00
       12454.6143        0.288465D+00
       12464.6143        0.297250D+00
       12474.6143        0.300856D+00
       12484.6143        0.298318D+00
       12494.6143        0.289312D+00
       12504.6143        0.274332D+00
       12514.6143        0.254682D+00
       12524.6143        0.232262D+00
       12534.6143        0.209146D+00
       12544.6143        0.187236D+00
       12554.6143        0.167971D+00
       12564.6143        0.152217D+00
       12574.6143        0.140268D+00
       12584.6143        0.132058D+00
       12594.6143        0.127404D+00
       12604.6143        0.126006D+00
       12614.6143        0.127650D+00
       12624.6143        0.132190D+00
       12634.6143        0.139422D+00
       12644.6143        0.149070D+00
       12654.6143        0.160772D+00
       12664.6143        0.174172D+00
       12674.6143        0.188776D+00
       12684.6143        0.204134D+00
       12694.6143        0.219819D+00
       12704.6143        0.235258D+00
       12714.6143        0.249821D+00
       12724.6143        0.262800D+00
       12734.6143        0.273441D+00
       12744.6143        0.281132D+00
       12754.6143        0.285470D+00
       12764.6143        0.286378D+00
       12774.6143        0.284110D+00
       12784.6143        0.279214D+00
       12794.6143        0.272432D+00
       12804.6143        0.264527D+00
       12814.6143        0.256268D+00
       12824.6143        0.248316D+00
       12834.6143        0.241189D+00
       12844.6143        0.235262D+00
       12854.6143        0.230840D+00
       12864.6143        0.228201D+00
       12874.6143        0.227568D+00
       12884.6143        0.229348D+00
       12894.6143        0.234032D+00
       12904.6143        0.242126D+00
       12914.6143        0.254002D+00
       12924.6143        0.269801D+00
       12934.6143        0.289156D+00
       12944.6143        0.311334D+00
       12954.6143        0.335394D+00
       12964.6143        0.360239D+00
       12974.6143        0.384883D+00
       12984.6143        0.408359D+00
       12994.6143        0.429564D+00
       13004.6143        0.447026D+00
       13014.6143        0.458908D+00
       13024.6143        0.463248D+00
       13034.6143        0.458457D+00
       13044.6143        0.443971D+00
       13054.6143        0.420632D+00
       13064.6143        0.390653D+00
       13074.6143        0.357281D+00
       13084.6143        0.324078D+00
       13094.6143        0.294124D+00
       13104.6143        0.269602D+00
       13114.6143        0.251621D+00
       13124.6143        0.240410D+00
       13134.6143        0.235570D+00
       13144.6143        0.236614D+00
       13154.6143        0.243317D+00
       13164.6143        0.255507D+00
       13174.6143        0.273280D+00
       13184.6143        0.296698D+00
       13194.6143        0.325571D+00
       13204.6143        0.359358D+00
       13214.6143        0.397197D+00
       13224.6143        0.438158D+00
       13234.6143        0.481083D+00
       13244.6143        0.524880D+00
       13254.6143        0.568279D+00
       13264.6143        0.609594D+00
       13274.6143        0.646573D+00
       13284.6143        0.676461D+00
       13294.6143        0.696308D+00
       13304.6143        0.703680D+00
       13314.6143        0.697234D+00
       13324.6143        0.677234D+00
       13334.6143        0.645629D+00
       13344.6143        0.605716D+00
       13354.6143        0.561352D+00
       13364.6143        0.516241D+00
       13374.6143        0.473236D+00
       13384.6143        0.434069D+00
       13394.6143        0.399363D+00
       13404.6143        0.369051D+00
       13414.6143        0.342969D+00
       13424.6143        0.320955D+00
       13434.6143        0.303270D+00
       13444.6143        0.290489D+00
       13454.6143        0.283150D+00
       13464.6143        0.281570D+00
       13474.6143        0.285657D+00
       13484.6143        0.295075D+00
       13494.6143        0.308878D+00
       13504.6143        0.325987D+00
       13514.6143        0.345345D+00
       13524.6143        0.365575D+00
       13534.6143        0.385412D+00
       13544.6143        0.403645D+00
       13554.6143        0.419232D+00
       13564.6143        0.431484D+00
       13574.6143        0.440169D+00
       13584.6143        0.445486D+00
       13594.6143        0.447921D+00
       13604.6143        0.448192D+00
       13614.6143        0.447060D+00
       13624.6143        0.445082D+00
       13634.6143        0.442898D+00
       13644.6143        0.441136D+00
       13654.6143        0.440480D+00
       13664.6143        0.441743D+00
       13674.6143        0.445910D+00
       13684.6143        0.454239D+00
       13694.6143        0.467874D+00
       13704.6143        0.488464D+00
       13714.6143        0.517844D+00
       13724.6143        0.557753D+00
       13734.6143        0.609629D+00
       13744.6143        0.674187D+00
       13754.6143        0.750912D+00
       13764.6143        0.838226D+00
       13774.6143        0.933851D+00
       13784.6143        0.103510D+01
       13794.6143        0.113938D+01
       13804.6143        0.124387D+01
       13814.6143        0.134491D+01
       13824.6143        0.143715D+01
       13834.6143        0.151329D+01
       13844.6143        0.156472D+01
       13854.6143        0.158309D+01
       13864.6143        0.156271D+01
       13874.6143        0.150241D+01
       13884.6143        0.140641D+01
       13894.6143        0.128389D+01
       13904.6143        0.114716D+01
       13914.6143        0.100893D+01
       13924.6143        0.880181D+00
       13934.6143        0.768613D+00
       13944.6143        0.678289D+00
       13954.6143        0.610007D+00
       13964.6143        0.562660D+00
       13974.6143        0.534680D+00
       13984.6143        0.524051D+00
       13994.6143        0.529323D+00
       14004.6143        0.549411D+00
       14014.6143        0.582946D+00
       14024.6143        0.628378D+00
       14034.6143        0.683654D+00
       14044.6143        0.747007D+00
       14054.6143        0.815920D+00
       14064.6143        0.888119D+00
       14074.6143        0.961279D+00
       14084.6143        0.103217D+01
       14094.6143        0.109710D+01
       14104.6143        0.115198D+01
       14114.6143        0.119282D+01
       14124.6143        0.121685D+01
       14134.6143        0.122306D+01
       14144.6143        0.121254D+01
       14154.6143        0.118837D+01
       14164.6143        0.115491D+01
       14174.6143        0.111692D+01
       14184.6143        0.107840D+01
       14194.6143        0.104256D+01
       14204.6143        0.101136D+01
       14214.6143        0.985860D+00
       14224.6143        0.966528D+00
       14234.6143        0.954048D+00
       14244.6143        0.949750D+00
       14254.6143        0.955211D+00
       14264.6143        0.973449D+00
       14274.6143        0.100794D+01
       14284.6143        0.106202D+01
       14294.6143        0.113791D+01
       14304.6143        0.123621D+01
       14314.6143        0.135468D+01
       14324.6143        0.148922D+01
       14334.6143        0.163471D+01
       14344.6143        0.178552D+01
       14354.6143        0.193643D+01
       14364.6143        0.208207D+01
       14374.6143        0.221522D+01
       14384.6143        0.232605D+01
       14394.6143        0.240202D+01
       14404.6143        0.242989D+01
       14414.6143        0.239910D+01
       14424.6143        0.230596D+01
       14434.6143        0.215589D+01
       14444.6143        0.196313D+01
       14454.6143        0.174829D+01
       14464.6143        0.153366D+01
       14474.6143        0.133841D+01
       14484.6143        0.117584D+01
       14494.6143        0.105245D+01
       14504.6143        0.969293D+00
       14514.6143        0.923558D+00
       14524.6143        0.911801D+00
       14534.6143        0.931845D+00
       14544.6143        0.981869D+00
       14554.6143        0.106136D+01
       14564.6143        0.116968D+01
       14574.6143        0.130505D+01
       14584.6143        0.146439D+01
       14594.6143        0.164335D+01
       14604.6143        0.183792D+01
       14614.6143        0.204292D+01
       14624.6143        0.225329D+01
       14634.6143        0.246225D+01
       14644.6143        0.265996D+01
       14654.6143        0.283300D+01
       14664.6143        0.296538D+01
       14674.6143        0.304121D+01
       14684.6143        0.304903D+01
       14694.6143        0.298503D+01
       14704.6143        0.285516D+01
       14714.6143        0.267443D+01
       14724.6143        0.246370D+01
       14734.6143        0.224472D+01
       14744.6143        0.203585D+01
       14754.6143        0.184874D+01
       14764.6143        0.168781D+01
       14774.6143        0.155138D+01
       14784.6143        0.143473D+01
       14794.6143        0.133366D+01
       14804.6143        0.124546D+01
       14814.6143        0.117073D+01
       14824.6143        0.111242D+01
       14834.6143        0.107411D+01
       14844.6143        0.105851D+01
       14854.6143        0.106629D+01
       14864.6143        0.109687D+01
       14874.6143        0.114633D+01
       14884.6143        0.120987D+01
       14894.6143        0.128227D+01
       14904.6143        0.135693D+01
       14914.6143        0.142771D+01
       14924.6143        0.148901D+01
       14934.6143        0.153657D+01
       14944.6143        0.156846D+01
       14954.6143        0.158497D+01
       14964.6143        0.158866D+01
       14974.6143        0.158297D+01
       14984.6143        0.157181D+01
       14994.6143        0.155836D+01
       15004.6143        0.154420D+01
       15014.6143        0.153078D+01
       15024.6143        0.151933D+01
       15034.6143        0.151173D+01
       15044.6143        0.151099D+01
       15054.6143        0.152173D+01
       15064.6143        0.155094D+01
       15074.6143        0.160534D+01
       15084.6143        0.169451D+01
       15094.6143        0.182850D+01
       15104.6143        0.201634D+01
       15114.6143        0.226467D+01
       15124.6143        0.257619D+01
       15134.6143        0.294794D+01
       15144.6143        0.337267D+01
       15154.6143        0.384081D+01
       15164.6143        0.434194D+01
       15174.6143        0.486570D+01
       15184.6143        0.539894D+01
       15194.6143        0.592156D+01
       15204.6143        0.640201D+01
       15214.6143        0.679710D+01
       15224.6143        0.705734D+01
       15234.6143        0.713739D+01
       15244.6143        0.700927D+01
       15254.6143        0.667212D+01
       15264.6143        0.615512D+01
       15274.6143        0.551252D+01
       15284.6143        0.481185D+01
       15294.6143        0.411912D+01
       15304.6143        0.348751D+01
       15314.6143        0.295078D+01
       15324.6143        0.252339D+01
       15334.6143        0.220393D+01
       15344.6143        0.198277D+01
       15354.6143        0.184922D+01
       15364.6143        0.179190D+01
       15374.6143        0.180281D+01
       15384.6143        0.187605D+01
       15394.6143        0.200527D+01
       15404.6143        0.218379D+01
       15414.6143        0.240302D+01
       15424.6143        0.265636D+01
       15434.6143        0.293320D+01
       15444.6143        0.322360D+01
       15454.6143        0.351612D+01
       15464.6143        0.379485D+01
       15474.6143        0.404146D+01
       15484.6143        0.423680D+01
       15494.6143        0.436416D+01
       15504.6143        0.441460D+01
       15514.6143        0.438905D+01
       15524.6143        0.429880D+01
       15534.6143        0.416307D+01
       15544.6143        0.400438D+01
       15554.6143        0.384389D+01
       15564.6143        0.369588D+01
       15574.6143        0.356873D+01
       15584.6143        0.346460D+01
       15594.6143        0.338238D+01
       15604.6143        0.332070D+01
       15614.6143        0.328180D+01
       15624.6143        0.327423D+01
       15634.6143        0.330876D+01
       15644.6143        0.340378D+01
       15654.6143        0.357919D+01
       15664.6143        0.385286D+01
       15674.6143        0.423587D+01
       15684.6143        0.473099D+01
       15694.6143        0.532833D+01
       15704.6143        0.601046D+01
       15714.6143        0.675617D+01
       15724.6143        0.754297D+01
       15734.6143        0.834844D+01
       15744.6143        0.914554D+01
       15754.6143        0.989340D+01
       15764.6143        0.105333D+02
       15774.6143        0.109903D+02
       15784.6143        0.111863D+02
       15794.6143        0.110600D+02
       15804.6143        0.105895D+02
       15814.6143        0.980392D+01
       15824.6143        0.878133D+01
       15834.6143        0.763334D+01
       15844.6143        0.647962D+01
       15854.6143        0.542251D+01
       15864.6143        0.453177D+01
       15874.6143        0.384036D+01
       15884.6143        0.335186D+01
       15894.6143        0.304912D+01
       15904.6143        0.291092D+01
       15914.6143        0.292119D+01
       15924.6143        0.306639D+01
       15934.6143        0.333941D+01
       15944.6143        0.373419D+01
       15954.6143        0.424207D+01
       15964.6143        0.485131D+01
       15974.6143        0.554671D+01
       15984.6143        0.631642D+01
       15994.6143        0.714163D+01
       16004.6143        0.800093D+01
       16014.6143        0.886091D+01
       16024.6143        0.967096D+01
       16034.6143        0.103633D+02
       16044.6143        0.108616D+02
       16054.6143        0.110967D+02
       16064.6143        0.110271D+02
       16074.6143        0.106521D+02
       16084.6143        0.100174D+02
       16094.6143        0.920588D+01
       16104.6143        0.831872D+01
       16114.6143        0.745111D+01
       16124.6143        0.667347D+01
       16134.6143        0.602010D+01
       16144.6143        0.549108D+01
       16154.6143        0.506164D+01
       16164.6143        0.469790D+01
       16174.6143        0.437293D+01
       16184.6143        0.407140D+01
       16194.6143        0.379571D+01
[...]
       35624.6143        0.000000D+00
       35634.6143        0.000000D+00
       35644.6143        0.000000D+00
       35654.6143        0.000000D+00
       35664.6143        0.000000D+00
       35674.6143        0.000000D+00
       35684.6143        0.000000D+00
       35694.6143        0.000000D+00
       35704.6143        0.000000D+00
       35714.6143        0.000000D+00
       35724.6143        0.000000D+00
       35734.6143        0.000000D+00
       35744.6143        0.000000D+00
       35754.6143        0.000000D+00
       35764.6143        0.000000D+00
       35774.6143        0.000000D+00
       35784.6143        0.000000D+00
       35794.6143        0.000000D+00
       35804.6143        0.000000D+00
       35814.6143        0.000000D+00
       35824.6143        0.000000D+00
       35834.6143        0.000000D+00
       35844.6143        0.000000D+00
       35854.6143        0.000000D+00
       35864.6143        0.000000D+00
       35874.6143        0.000000D+00
       35884.6143        0.000000D+00
       35894.6143        0.000000D+00
       35904.6143        0.000000D+00
       35914.6143        0.000000D+00
       35924.6143        0.000000D+00
       35934.6143        0.000000D+00
       35944.6143        0.000000D+00
       35954.6143        0.000000D+00
       35964.6143        0.000000D+00
       35974.6143        0.000000D+00
       35984.6143        0.000000D+00
       35994.6143        0.000000D+00
       36004.6143        0.000000D+00
       36014.6143        0.000000D+00
       36024.6143        0.000000D+00
       36034.6143        0.000000D+00
       36044.6143        0.000000D+00
       36054.6143        0.000000D+00
       36064.6143        0.000000D+00
       36074.6143        0.000000D+00
       36084.6143        0.000000D+00
       36094.6143        0.000000D+00
       36104.6143        0.000000D+00
       36114.6143        0.000000D+00
       36124.6143        0.000000D+00
       36134.6143        0.000000D+00
       36144.6143        0.000000D+00
       36154.6143        0.000000D+00
       36164.6143        0.000000D+00
       36174.6143        0.000000D+00
       36184.6143        0.000000D+00
       36194.6143        0.000000D+00
       36204.6143        0.000000D+00
       36214.6143        0.000000D+00
       36224.6143        0.000000D+00
       36234.6143        0.000000D+00
       36244.6143        0.000000D+00
       36254.6143        0.000000D+00
       36264.6143        0.000000D+00
       36274.6143        0.000000D+00
       36284.6143        0.000000D+00
       36294.6143        0.000000D+00
       36304.6143        0.000000D+00
       36314.6143        0.000000D+00
 ------------------------------------------------------------

 Quartic Centrifugal Distortion Constants Tau Prime
                       cm -1                    MHz
 TauP aaaa        -0.2459810197D-03        -0.7374325452D+01
 TauP bbaa        -0.1337005572D-05        -0.4008241868D-01
 TauP bbbb        -0.1308866426D-07        -0.3923882830D-03
 TauP ccaa        -0.1722573505D-05        -0.5164145450D-01
 TauP ccbb        -0.1257718043D-07        -0.3770543837D-03
 TauP cccc        -0.2133038234D-07        -0.6394687751D-03

 I r Representation for Asymmetric Top: Iz < Ix < Iy
 Asymmetric Top Reduction
 Asymmetric Top Parameter Kappa :       -0.9854288466
 Asymmetric Top Parameter Sigma :      273.5149880516

 Constants in the Asymmetrically reduced Hamiltonian 
                        cm-1                    MHz
  DELTA J  :    0.4302380825D-08         0.1289821323D-03
  DELTA K  :    0.6073582063D-04         0.1820814095D+01
  DELTA JK :    0.7551319217D-06         0.2263828549D-01
  delta J  :   -0.5151073800D-09        -0.1544253076D-04
  delta K  :    0.1106960162D-06         0.3318583077D-02

 Effective Rotational Constants
 (Include Terms due to Quartic Centrifugal Distortion Constants)
           Be in cm-1              B(A) in cm-1             B(A) IN  MHz
 a          1.668223826             1.668223824              50012.09206
 b          0.142392229             0.142392547               4268.82117
 c          0.131194081             0.131193765               3933.09014

 Nielsen Centrifugal Distortion Constants
                cm-1                     MHz
 DJ     0.4012859396D-08         0.1203024982D-03
 DJK    0.7568690503D-06         0.2269036330D-01
 DK     0.6073437302D-04         0.1820770697D+01
 dJ    -0.5151073800D-09        -0.1544253076D-04
 R5     0.2384044210D-07         0.7147184738D-03
 R6    -0.1447607145D-09        -0.4339817041D-05

 Constants in the Symmetrically Reduced Hamiltonian
                    cm-1                      MHz
  D J  :    0.4100022597D-08         0.1229155852D-03
  D JK :    0.7563460711D-06         0.2267468478D-01
  D K  :    0.6073480883D-04         0.1820783763D+01
  d 1  :    0.5151073800D-09         0.1544253076D-04
  d 2  :   -0.1011791136D-09        -0.3033273515D-05


 Effective Rotational Constants
 (Include Terms due to Quartic Centrifugal Distortion Constants)
           Be in cm-1              B(S) in cm-1             B(S) IN  MHz
 a          1.668223826             1.668223825              50012.09209
 b          0.142392229             0.142392325               4268.81452
 c          0.131194081             0.131193986               3933.09677

 Wilson Centrifugal Distortion Constants
                cm-1                     MHz
 DJ     0.5332595584D-08         0.1598671938D-03
 DJK   -0.4376600951D-08        -0.1312071957D-03
 DK     0.2316171432D-08         0.6943707266D-04

 Nielsen Centrifugal Distortion Constants
                cm-1                     MHz
 DJ     0.4012859396D-08         0.1203024982D-03
 DJK    0.7568690503D-06         0.2269036330D-01
 DK     0.6073437302D-04         0.1820770697D+01
 dJ    -0.5151073800D-09        -0.1544253076D-04
 R5     0.2384044210D-07         0.7147184738D-03
 R6    -0.1447607145D-09        -0.4339817041D-05

 Test of Quartic Planarity Relationships
 Asymmetric Reduction I r
 4C*DELJ - (B-C)*DELJK - 2*(2A+B+C)*SDELJ+ 2*(B-C)*SDELK = 0
 VALUE =    -0.4604403500D-15
 Symmetric Reduction I r
 4C*DJ - (B-C)*DJK + 2*(2A+B+C)*D1 - 4*(4A+B-3C)*D2 = 0
 Value =    -0.4604403521D-15

 Alpha Matrix in cm-1
 Axis Mode    Inertia        Coriol.        Anharm.        Total
  x    1   -0.47803D-03   -0.34704D-02    0.00000D+00   -0.39485D-02
  x    2   -0.11212D-01   -0.61746D-02    0.00000D+00   -0.17386D-01
  x    3   -0.75882D-03   -0.75646D-02    0.00000D+00   -0.83234D-02
  x    4   -0.38419D-02   -0.10641D-01    0.00000D+00   -0.14483D-01
  x    5   -0.10107D-05    0.12534D-01    0.00000D+00    0.12533D-01
  x    6   -0.10849D-02   -0.17289D-02    0.00000D+00   -0.28138D-02
  x    7   -0.77919D-04   -0.37643D-03    0.00000D+00   -0.45435D-03
  x    8   -0.61076D-03   -0.70373D-04    0.00000D+00   -0.68113D-03
  x    9   -0.23018D-02   -0.45806D-02    0.00000D+00   -0.68824D-02
  x   10   -0.94562D-03   -0.73375D-03    0.00000D+00   -0.16794D-02
  x   11   -0.28420D-02   -0.44841D-02    0.00000D+00   -0.73261D-02
  x   12   -0.88117D-03   -0.13592D-01    0.00000D+00   -0.14473D-01
  x   13   -0.30194D-08    0.17683D-01    0.00000D+00    0.17683D-01
  x   14   -0.95276D-09    0.13467D-01    0.00000D+00    0.13467D-01
  x   15   -0.21184D-09    0.56981D-02    0.00000D+00    0.56981D-02
  x   16   -0.58750D-03    0.91460D-02    0.00000D+00    0.85585D-02
  x   17   -0.11027D-04   -0.30184D+00    0.00000D+00   -0.30185D+00
  x   18   -0.12915D-09    0.31061D+00    0.00000D+00    0.31061D+00
  y    1   -0.10927D-04   -0.23289D-04    0.00000D+00   -0.34216D-04
  y    2   -0.47803D-07   -0.32529D-05    0.00000D+00   -0.33007D-05
  y    3   -0.21207D-05   -0.14422D-04    0.00000D+00   -0.16543D-04
  y    4   -0.11722D-06   -0.22181D-07    0.00000D+00   -0.13940D-06
  y    5   -0.81774D-08   -0.35341D-04    0.00000D+00   -0.35349D-04
  y    6   -0.10736D-05   -0.70390D-04    0.00000D+00   -0.71464D-04
  y    7   -0.15727D-05   -0.11632D-03    0.00000D+00   -0.11790D-03
  y    8   -0.49197D-04    0.74258D-05    0.00000D+00   -0.41771D-04
  y    9   -0.73102D-05   -0.55762D-04    0.00000D+00   -0.63072D-04
  y   10   -0.29019D-04   -0.73275D-04    0.00000D+00   -0.10229D-03
  y   11   -0.11351D-04   -0.44528D-04    0.00000D+00   -0.55880D-04
  y   12   -0.22958D-04   -0.58259D-04    0.00000D+00   -0.81217D-04
  y   13   -0.13256D-09    0.17974D-03    0.00000D+00    0.17974D-03
  y   14   -0.36547D-10    0.13561D-03    0.00000D+00    0.13561D-03
  y   15   -0.30494D-10    0.13615D-05    0.00000D+00    0.13615D-05
  y   16   -0.26379D-04    0.10778D-03    0.00000D+00    0.81401D-04
  y   17   -0.53079D-06   -0.43635D-03    0.00000D+00   -0.43688D-03
  y   18   -0.13317D-10    0.61118D-03    0.00000D+00    0.61118D-03
  z    1   -0.19939D-06   -0.44987D-04    0.00000D+00   -0.45186D-04
  z    2   -0.58409D-05   -0.43677D-04    0.00000D+00   -0.49518D-04
  z    3   -0.11838D-05   -0.35999D-04    0.00000D+00   -0.37183D-04
  z    4   -0.17364D-05   -0.42641D-04    0.00000D+00   -0.44377D-04
  z    5   -0.34189D-08   -0.46545D-08    0.00000D+00   -0.80734D-08
  z    6   -0.13283D-05    0.29282D-04    0.00000D+00    0.27954D-04
  z    7   -0.14796D-06   -0.33448D-04    0.00000D+00   -0.33596D-04
  z    8   -0.41275D-07   -0.22983D-03    0.00000D+00   -0.22987D-03
  z    9   -0.69621D-05    0.23007D-04    0.00000D+00    0.16045D-04
  z   10   -0.47940D-07    0.13559D-03    0.00000D+00    0.13554D-03
  z   11   -0.72834D-05    0.87938D-04    0.00000D+00    0.80654D-04
  z   12   -0.22256D-04    0.49254D-04    0.00000D+00    0.26998D-04
  z   13   -0.24223D-10   -0.48566D-09    0.00000D+00   -0.50989D-09
  z   14   -0.23945D-10    0.00000D+00    0.00000D+00   -0.23945D-10
  z   15   -0.16534D-10    0.00000D+00    0.00000D+00   -0.16534D-10
  z   16   -0.16062D-04    0.59197D-04    0.00000D+00    0.43136D-04
  z   17   -0.26997D-07    0.14509D-03    0.00000D+00    0.14506D-03
  z   18   -0.69026D-11    0.00000D+00    0.00000D+00   -0.69026D-11
 
                                                      acrolein test BLYP opt S0
                                                             IR Spectrum
 
     3  33    2                  2                                       1   1    11 1    1                                          
     1  10    9                  4                                       5   4    22 1    0     9    8  7      5 4       22          
     9  09    8                  9                                       0   0    74 9    7     1    0  2      3 8       96          
     5  59    5                  6                                       1   6    28 0    7     2    3  6      2 0       25          
 
     X  XX    X                  X                                       X   X    XX X    X     X    X  X      X X       XX          
     X   X                       X                                       X         X      X          X  X      X                     
                                 X                                                        X          X  X      X                     
                                 X                                                        X          X  X      X                     
                                 X                                                        X          X  X                            
                                 X                                                                   X  X                            
                                 X                                                                   X                               
                                 X                                                                   X                               
                                 X                                                                                                   
                                 X                                                                                                   
                                 X                                                                                                   
                                 X                                                                                                   
                                 X                                                                                                   
                                 X                                                                                                   
                                 X                                                                                                   
                                 X                                                                                                   
                                 X                                                                                                   
                                 X                                                                                                   
                                 X                                                                                                   
                                 X                                                                                                   
 
 -------------------------------------------------------------------
 Center     Atomic                   Forces (Hartrees/Bohr)
 Number     Number              X              Y              Z
 -------------------------------------------------------------------
      1        8          -0.000102916   -0.000063542   -0.000020018
      2        6           0.000001035    0.000036339   -0.000024798
      3        6           0.000049138    0.000001225    0.000010756
      4        6           0.000030053    0.000073930    0.000062433
      5        1           0.000025497   -0.000021512   -0.000020762
      6        1          -0.000016189   -0.000002968   -0.000019751
      7        1          -0.000000031   -0.000012098    0.000017936
      8        1           0.000013412   -0.000011374   -0.000005795
 -------------------------------------------------------------------
 Cartesian Forces:  Max     0.000102916 RMS     0.000036958
 Force constants in Cartesian coordinates: 
                1             2             3             4             5 
      1  0.324038D+00
      2  0.109765D+00  0.740735D-01
      3 -0.905198D-03  0.351290D-03  0.589360D-01
      4 -0.347358D-02 -0.319960D-02 -0.324235D-02  0.656472D+00
      5 -0.217795D-02 -0.162653D-02 -0.930474D-03  0.911370D-02  0.619244D+00
      6 -0.116703D-02  0.474681D-03  0.689402D-01 -0.420720D-02 -0.120856D-02
      7 -0.550800D-01  0.425689D-02  0.360319D-02 -0.283236D+00 -0.855794D-01
      8 -0.981412D-02 -0.357630D-04  0.863585D-03 -0.125329D+00 -0.154193D+00
      9  0.486454D-03 -0.237232D-03 -0.261519D-01  0.170046D-02  0.505816D-03
     10 -0.253090D+00 -0.868696D-01  0.995054D-03 -0.766324D-01  0.117376D-01
     11 -0.816113D-01 -0.523139D-01 -0.353426D-03  0.234651D-01  0.188651D-01
     12  0.287024D-02 -0.120001D-02 -0.172262D+00  0.103580D-01  0.296548D-02
     13 -0.175809D-01 -0.274916D-01 -0.427866D-03  0.196698D-02 -0.666558D-03
     14 -0.145954D-01 -0.208886D-01  0.778178D-04 -0.289915D-02  0.177430D-02
     15 -0.947701D-03  0.420781D-03  0.541430D-01 -0.340536D-02 -0.978217D-03
     16  0.612635D-02  0.347682D-02 -0.625666D-04 -0.717041D-03 -0.301043D-01
     17 -0.273531D-02  0.417295D-03  0.647528D-04  0.763726D-03 -0.979600D-02
     18 -0.932687D-03  0.437078D-03  0.483899D-01 -0.335410D-02 -0.967034D-03
     19  0.559230D-05  0.438762D-03 -0.279148D-04 -0.234311D+00  0.132162D+00
     20  0.778647D-03 -0.545387D-04 -0.110719D-03  0.136686D+00 -0.151883D+00
     21  0.878697D-03 -0.374795D-03 -0.471800D-01  0.319624D-02  0.918277D-03
     22 -0.945285D-03 -0.376388D-03  0.676523D-04 -0.600692D-01 -0.344854D-01
     23  0.390773D-03  0.428518D-03  0.371735D-04 -0.386009D-01 -0.322385D+00
     24 -0.282773D-03  0.128203D-03  0.151848D-01 -0.104573D-02 -0.305288D-03
                6             7             8             9            10 
      6  0.152502D+00
      7  0.471144D-02  0.576660D+00
      8  0.110473D-02  0.364235D-01  0.634107D+00
      9 -0.731963D-01 -0.194394D-02 -0.477434D-03  0.115134D+00
     10  0.126936D-02 -0.161806D+00  0.106953D+00 -0.472982D-03  0.526855D+00
     11 -0.458797D-03  0.829105D-01 -0.146264D+00  0.243809D-03 -0.413481D-01
     12 -0.200832D+00 -0.115551D-01 -0.280153D-02  0.520036D-01 -0.311516D-02
     13 -0.566659D-03 -0.149988D-02  0.284022D-01  0.233358D-03 -0.279994D-01
     14  0.995668D-04 -0.282604D-02 -0.158377D-01 -0.387414D-04  0.133621D-01
     15  0.661901D-01  0.380376D-02  0.945151D-03 -0.267114D-01  0.101828D-02
     16 -0.810402D-04 -0.539413D-01 -0.244059D-01  0.233214D-04 -0.789831D-02
     17  0.788626D-04 -0.244018D-01 -0.315650D+00 -0.296024D-04  0.890755D-03
     18  0.702720D-01  0.379543D-02  0.931005D-03 -0.635015D-01  0.950278D-03
     19 -0.456553D-04 -0.185282D-01  0.179703D-01  0.826603D-05 -0.338155D-02
     20 -0.141429D-03 -0.136561D-01  0.698682D-02  0.513207D-04 -0.506108D-02
     21 -0.814901D-01 -0.360388D-02 -0.850550D-03  0.281927D-01 -0.924533D-03
     22  0.867791D-04 -0.256794D-02 -0.302000D-01 -0.349397D-04  0.395214D-02
     23  0.509422D-04  0.287247D-02 -0.911266D-02 -0.179356D-04  0.335097D-03
     24 -0.238532D-02  0.118911D-02  0.285043D-03 -0.576942D-02  0.279692D-03
               11            12            13            14            15 
     11  0.474150D+00
     12  0.126281D-02  0.559427D+00
     13 -0.499408D-02  0.136674D-02  0.478733D-01
     14 -0.281931D+00 -0.254276D-03  0.402251D-02  0.317412D+00
     15 -0.470757D-03 -0.183676D+00 -0.447610D-03  0.911492D-04  0.653870D-01
     16  0.245923D-01  0.203171D-03 -0.267241D-02  0.218304D-02 -0.634272D-04
     17 -0.146017D-01 -0.211035D-03  0.142972D-02 -0.671663D-03  0.686571D-04
     18 -0.467579D-03 -0.160801D+00 -0.444952D-03  0.759841D-04  0.595450D-01
     19 -0.260048D-02  0.901174D-04  0.340167D-03  0.270919D-04 -0.287766D-04
     20  0.133746D-02  0.355657D-03  0.802970D-04 -0.102667D-03 -0.115589D-03
     21  0.369308D-03  0.159392D+00  0.425533D-03 -0.704350D-04 -0.514668D-01
     22 -0.413880D-03 -0.218023D-03 -0.427821D-03  0.725890D-03  0.708281D-04
     23  0.758993D-03 -0.117092D-03 -0.782465D-03  0.245304D-03  0.388245D-04
     24 -0.125367D-03 -0.532520D-01 -0.138543D-03  0.189343D-04  0.165893D-01
               16            17            18            19            20 
     16  0.620021D-01
     17  0.256923D-01  0.338165D+00
     18 -0.598294D-04  0.690387D-04  0.771580D-01
     19  0.100838D-02 -0.167617D-03 -0.273988D-04  0.249704D+00
     20  0.261858D-03  0.123852D-02 -0.114096D-03 -0.142132D+00  0.154583D+00
     21  0.618005D-04 -0.643363D-04 -0.548017D-01  0.374467D-04  0.106646D-03
     22 -0.390776D-02 -0.147179D-02  0.732537D-04  0.516270D-02  0.230424D-01
     23 -0.169601D-02  0.898895D-03  0.356030D-04 -0.569810D-02 -0.121055D-01
     24 -0.214291D-04  0.236631D-04  0.237389D-01 -0.608475D-05 -0.317892D-04
               21            22            23            24 
     21  0.607542D-01
     22 -0.713017D-04  0.588032D-01
     23 -0.341154D-04  0.431792D-01  0.341272D+00
     24 -0.134002D-01  0.257514D-04  0.660029D-05  0.192939D-01
 Leave Link  716 at Tue Apr 28 17:28:20 2015, MaxMem= 1048576000 cpu:     750.0
 (Enter /usr/soft/chemie/g09/l9999.exe)

 This type of calculation cannot be archived.


 THERE'S SMALL CHOICE IN A BOWL OF ROTTEN APPLES.
                     SHAKESPEARE
 Job cpu time:  0 days  0 hours 12 minutes 31.9 seconds.
 File lengths (MBytes):  RWF=      5 Int=      0 D2E=      0 Chk=      1 Scr=      1
 Normal termination of Gaussian 09 at Tue Apr 28 17:28:20 2015.
