anisol                                                                  
Freq      RB3LYP                                                      6-311+G(d,p)        
Number of atoms                            I               16
Info1-9                                    I   N=           9
           6           6        1001           0           0         101
           6          18        -502
Charge                                     I                0
Multiplicity                               I                1
Number of electrons                        I               58
Number of alpha electrons                  I               29
Number of beta electrons                   I               29
Number of basis functions                  I              224
Number of independent functions            I              224
Number of point charges in /Mol/           I                0
Number of translation vectors              I                0
Atomic numbers                             I   N=          16
           6           1           6           1           6           1
           6           1           6           1           6           8
           6           1           1           1
Nuclear charges                            R   N=          16
  6.00000000E+00  1.00000000E+00  6.00000000E+00  1.00000000E+00  6.00000000E+00
  1.00000000E+00  6.00000000E+00  1.00000000E+00  6.00000000E+00  1.00000000E+00
  6.00000000E+00  8.00000000E+00  6.00000000E+00  1.00000000E+00  1.00000000E+00
  1.00000000E+00
Current cartesian coordinates              R   N=          48
  2.64100455E+00 -9.48921030E-03 -2.20106448E-04  4.68929270E+00 -7.20608494E-02
 -4.87029393E-04 -2.62996006E+00  1.11480142E-01  4.69623985E-04 -4.67237047E+00
  1.95022759E-01  7.38144974E-04  1.38888710E+00  2.31650986E+00 -1.60007221E-05
  2.45239756E+00  4.06611025E+00 -1.23713461E-04  1.28589082E+00 -2.25473219E+00
 -8.38979677E-05  2.22962110E+00 -4.07166371E+00 -2.40264588E-04 -1.23769595E+00
  2.35589329E+00  3.26940466E-04 -2.23726312E+00  4.14500911E+00  4.89176566E-04
 -1.36062797E+00 -2.20411095E+00  2.63321299E-04 -2.52363053E+00 -4.50847510E+00
  3.81271838E-04 -5.20680402E+00 -4.59525307E+00  6.75204879E-04 -5.70442699E+00
 -6.59178786E+00  6.85433442E-04 -5.99365089E+00 -3.69434190E+00  1.69052463E+00
 -5.99402422E+00 -3.69426473E+00 -1.68895888E+00
Number of symbols in /Mol/                 I                0
Force Field                                I                0
Atom Types                                 C   N=          16
                                                            
                                                            
                                                            
            
Int Atom Types                             I   N=          16
           0           0           0           0           0           0
           0           0           0           0           0           0
           0           0           0           0
MM charges                                 R   N=          16
  0.00000000E+00  0.00000000E+00  0.00000000E+00  0.00000000E+00  0.00000000E+00
  0.00000000E+00  0.00000000E+00  0.00000000E+00  0.00000000E+00  0.00000000E+00
  0.00000000E+00  0.00000000E+00  0.00000000E+00  0.00000000E+00  0.00000000E+00
  0.00000000E+00
Integer atomic weights                     I   N=          16
          12           1          12           1          12           1
          12           1          12           1          12          16
          12           1           1           1
Real atomic weights                        R   N=          16
  1.20000000E+01  1.00782504E+00  1.20000000E+01  1.00782504E+00  1.20000000E+01
  1.00782504E+00  1.20000000E+01  1.00782504E+00  1.20000000E+01  1.00782504E+00
  1.20000000E+01  1.59949146E+01  1.20000000E+01  1.00782504E+00  1.00782504E+00
  1.00782504E+00
Atom fragment info                         I   N=          16
           0           0           0           0           0           0
           0           0           0           0           0           0
           0           0           0           0
Atom residue num                           I   N=          16
           0           0           0           0           0           0
           0           0           0           0           0           0
           0           0           0           0
Nuclear spins                              I   N=          16
           0           1           0           1           0           1
           0           1           0           1           0           0
           0           1           1           1
Nuclear ZEff                               R   N=          16
 -3.60000000E+00 -1.00000000E+00 -3.60000000E+00 -1.00000000E+00 -3.60000000E+00
 -1.00000000E+00 -3.60000000E+00 -1.00000000E+00 -3.60000000E+00 -1.00000000E+00
 -3.60000000E+00 -5.60000000E+00 -3.60000000E+00 -1.00000000E+00 -1.00000000E+00
 -1.00000000E+00
Nuclear QMom                               R   N=          16
  0.00000000E+00  0.00000000E+00  0.00000000E+00  0.00000000E+00  0.00000000E+00
  0.00000000E+00  0.00000000E+00  0.00000000E+00  0.00000000E+00  0.00000000E+00
  0.00000000E+00  0.00000000E+00  0.00000000E+00  0.00000000E+00  0.00000000E+00
  0.00000000E+00
Nuclear GFac                               R   N=          16
  0.00000000E+00  2.79284600E+00  0.00000000E+00  2.79284600E+00  0.00000000E+00
  2.79284600E+00  0.00000000E+00  2.79284600E+00  0.00000000E+00  2.79284600E+00
  0.00000000E+00  0.00000000E+00  0.00000000E+00  2.79284600E+00  2.79284600E+00
  2.79284600E+00
MicOpt                                     I   N=          16
          -1          -1          -1          -1          -1          -1
          -1          -1          -1          -1          -1          -1
          -1          -1          -1          -1
Number of residues                         I                0
Number of secondary structures             I                0
Number of contracted shells                I               80
Number of primitive shells                 I              152
Pure/Cartesian d shells                    I                0
Pure/Cartesian f shells                    I                0
Highest angular momentum                   I                2
Largest degree of contraction              I                6
Shell types                                I   N=          80
           0          -1          -1          -1          -1          -2
           0           0           0           1           0          -1
          -1          -1          -1          -2           0           0
           0           1           0          -1          -1          -1
          -1          -2           0           0           0           1
           0          -1          -1          -1          -1          -2
           0           0           0           1           0          -1
          -1          -1          -1          -2           0           0
           0           1           0          -1          -1          -1
          -1          -2           0          -1          -1          -1
          -1          -2           0          -1          -1          -1
          -1          -2           0           0           0           1
           0           0           0           1           0           0
           0           1
Number of primitives per shell             I   N=          80
           6           3           1           1           1           1
           3           1           1           1           6           3
           1           1           1           1           3           1
           1           1           6           3           1           1
           1           1           3           1           1           1
           6           3           1           1           1           1
           3           1           1           1           6           3
           1           1           1           1           3           1
           1           1           6           3           1           1
           1           1           6           3           1           1
           1           1           6           3           1           1
           1           1           3           1           1           1
           3           1           1           1           3           1
           1           1
Shell to atom map                          I   N=          80
           1           1           1           1           1           1
           2           2           2           2           3           3
           3           3           3           3           4           4
           4           4           5           5           5           5
           5           5           6           6           6           6
           7           7           7           7           7           7
           8           8           8           8           9           9
           9           9           9           9          10          10
          10          10          11          11          11          11
          11          11          12          12          12          12
          12          12          13          13          13          13
          13          13          14          14          14          14
          15          15          15          15          16          16
          16          16
Primitive exponents                        R   N=         152
  4.56324000E+03  6.82024000E+02  1.54973000E+02  4.44553000E+01  1.30290000E+01
  1.82773000E+00  2.09642000E+01  4.80331000E+00  1.45933000E+00  4.83456000E-01
  1.45585000E-01  4.38000000E-02  6.26000000E-01  3.38650000E+01  5.09479000E+00
  1.15879000E+00  3.25840000E-01  1.02741000E-01  7.50000000E-01  4.56324000E+03
  6.82024000E+02  1.54973000E+02  4.44553000E+01  1.30290000E+01  1.82773000E+00
  2.09642000E+01  4.80331000E+00  1.45933000E+00  4.83456000E-01  1.45585000E-01
  4.38000000E-02  6.26000000E-01  3.38650000E+01  5.09479000E+00  1.15879000E+00
  3.25840000E-01  1.02741000E-01  7.50000000E-01  4.56324000E+03  6.82024000E+02
  1.54973000E+02  4.44553000E+01  1.30290000E+01  1.82773000E+00  2.09642000E+01
  4.80331000E+00  1.45933000E+00  4.83456000E-01  1.45585000E-01  4.38000000E-02
  6.26000000E-01  3.38650000E+01  5.09479000E+00  1.15879000E+00  3.25840000E-01
  1.02741000E-01  7.50000000E-01  4.56324000E+03  6.82024000E+02  1.54973000E+02
  4.44553000E+01  1.30290000E+01  1.82773000E+00  2.09642000E+01  4.80331000E+00
  1.45933000E+00  4.83456000E-01  1.45585000E-01  4.38000000E-02  6.26000000E-01
  3.38650000E+01  5.09479000E+00  1.15879000E+00  3.25840000E-01  1.02741000E-01
  7.50000000E-01  4.56324000E+03  6.82024000E+02  1.54973000E+02  4.44553000E+01
  1.30290000E+01  1.82773000E+00  2.09642000E+01  4.80331000E+00  1.45933000E+00
  4.83456000E-01  1.45585000E-01  4.38000000E-02  6.26000000E-01  3.38650000E+01
  5.09479000E+00  1.15879000E+00  3.25840000E-01  1.02741000E-01  7.50000000E-01
  4.56324000E+03  6.82024000E+02  1.54973000E+02  4.44553000E+01  1.30290000E+01
  1.82773000E+00  2.09642000E+01  4.80331000E+00  1.45933000E+00  4.83456000E-01
  1.45585000E-01  4.38000000E-02  6.26000000E-01  8.58850000E+03  1.29723000E+03
  2.99296000E+02  8.73771000E+01  2.56789000E+01  3.74004000E+00  4.21175000E+01
  9.62837000E+00  2.85332000E+00  9.05661000E-01  2.55611000E-01  8.45000000E-02
  1.29200000E+00  4.56324000E+03  6.82024000E+02  1.54973000E+02  4.44553000E+01
  1.30290000E+01  1.82773000E+00  2.09642000E+01  4.80331000E+00  1.45933000E+00
  4.83456000E-01  1.45585000E-01  4.38000000E-02  6.26000000E-01  3.38650000E+01
  5.09479000E+00  1.15879000E+00  3.25840000E-01  1.02741000E-01  7.50000000E-01
  3.38650000E+01  5.09479000E+00  1.15879000E+00  3.25840000E-01  1.02741000E-01
  7.50000000E-01  3.38650000E+01  5.09479000E+00  1.15879000E+00  3.25840000E-01
  1.02741000E-01  7.50000000E-01
Contraction coefficients                   R   N=         152
  1.96665025E-03  1.52306019E-02  7.61269097E-02  2.60801033E-01  6.16462078E-01
  2.21006028E-01  1.14660081E-01  9.19999648E-01 -3.03068213E-03  1.00000000E+00
  1.00000000E+00  1.00000000E+00  1.00000000E+00  2.54938145E-02  1.90373109E-01
  8.52161486E-01  1.00000000E+00  1.00000000E+00  1.00000000E+00  1.96665025E-03
  1.52306019E-02  7.61269097E-02  2.60801033E-01  6.16462078E-01  2.21006028E-01
  1.14660081E-01  9.19999648E-01 -3.03068213E-03  1.00000000E+00  1.00000000E+00
  1.00000000E+00  1.00000000E+00  2.54938145E-02  1.90373109E-01  8.52161486E-01
  1.00000000E+00  1.00000000E+00  1.00000000E+00  1.96665025E-03  1.52306019E-02
  7.61269097E-02  2.60801033E-01  6.16462078E-01  2.21006028E-01  1.14660081E-01
  9.19999648E-01 -3.03068213E-03  1.00000000E+00  1.00000000E+00  1.00000000E+00
  1.00000000E+00  2.54938145E-02  1.90373109E-01  8.52161486E-01  1.00000000E+00
  1.00000000E+00  1.00000000E+00  1.96665025E-03  1.52306019E-02  7.61269097E-02
  2.60801033E-01  6.16462078E-01  2.21006028E-01  1.14660081E-01  9.19999648E-01
 -3.03068213E-03  1.00000000E+00  1.00000000E+00  1.00000000E+00  1.00000000E+00
  2.54938145E-02  1.90373109E-01  8.52161486E-01  1.00000000E+00  1.00000000E+00
  1.00000000E+00  1.96665025E-03  1.52306019E-02  7.61269097E-02  2.60801033E-01
  6.16462078E-01  2.21006028E-01  1.14660081E-01  9.19999648E-01 -3.03068213E-03
  1.00000000E+00  1.00000000E+00  1.00000000E+00  1.00000000E+00  2.54938145E-02
  1.90373109E-01  8.52161486E-01  1.00000000E+00  1.00000000E+00  1.00000000E+00
  1.96665025E-03  1.52306019E-02  7.61269097E-02  2.60801033E-01  6.16462078E-01
  2.21006028E-01  1.14660081E-01  9.19999648E-01 -3.03068213E-03  1.00000000E+00
  1.00000000E+00  1.00000000E+00  1.00000000E+00  1.89515008E-03  1.43859006E-02
  7.07320031E-02  2.40001011E-01  5.94797026E-01  2.80802012E-01  1.13889012E-01
  9.20811101E-01 -3.27447036E-03  1.00000000E+00  1.00000000E+00  1.00000000E+00
  1.00000000E+00  1.96665025E-03  1.52306019E-02  7.61269097E-02  2.60801033E-01
  6.16462078E-01  2.21006028E-01  1.14660081E-01  9.19999648E-01 -3.03068213E-03
  1.00000000E+00  1.00000000E+00  1.00000000E+00  1.00000000E+00  2.54938145E-02
  1.90373109E-01  8.52161486E-01  1.00000000E+00  1.00000000E+00  1.00000000E+00
  2.54938145E-02  1.90373109E-01  8.52161486E-01  1.00000000E+00  1.00000000E+00
  1.00000000E+00  2.54938145E-02  1.90373109E-01  8.52161486E-01  1.00000000E+00
  1.00000000E+00  1.00000000E+00
P(S=P) Contraction coefficients            R   N=         152
  0.00000000E+00  0.00000000E+00  0.00000000E+00  0.00000000E+00  0.00000000E+00
  0.00000000E+00  4.02486927E-02  2.37593957E-01  8.15853851E-01  1.00000000E+00
  1.00000000E+00  1.00000000E+00  0.00000000E+00  0.00000000E+00  0.00000000E+00
  0.00000000E+00  0.00000000E+00  0.00000000E+00  0.00000000E+00  0.00000000E+00
  0.00000000E+00  0.00000000E+00  0.00000000E+00  0.00000000E+00  0.00000000E+00
  4.02486927E-02  2.37593957E-01  8.15853851E-01  1.00000000E+00  1.00000000E+00
  1.00000000E+00  0.00000000E+00  0.00000000E+00  0.00000000E+00  0.00000000E+00
  0.00000000E+00  0.00000000E+00  0.00000000E+00  0.00000000E+00  0.00000000E+00
  0.00000000E+00  0.00000000E+00  0.00000000E+00  0.00000000E+00  4.02486927E-02
  2.37593957E-01  8.15853851E-01  1.00000000E+00  1.00000000E+00  1.00000000E+00
  0.00000000E+00  0.00000000E+00  0.00000000E+00  0.00000000E+00  0.00000000E+00
  0.00000000E+00  0.00000000E+00  0.00000000E+00  0.00000000E+00  0.00000000E+00
  0.00000000E+00  0.00000000E+00  0.00000000E+00  4.02486927E-02  2.37593957E-01
  8.15853851E-01  1.00000000E+00  1.00000000E+00  1.00000000E+00  0.00000000E+00
  0.00000000E+00  0.00000000E+00  0.00000000E+00  0.00000000E+00  0.00000000E+00
  0.00000000E+00  0.00000000E+00  0.00000000E+00  0.00000000E+00  0.00000000E+00
  0.00000000E+00  0.00000000E+00  4.02486927E-02  2.37593957E-01  8.15853851E-01
  1.00000000E+00  1.00000000E+00  1.00000000E+00  0.00000000E+00  0.00000000E+00
  0.00000000E+00  0.00000000E+00  0.00000000E+00  0.00000000E+00  0.00000000E+00
  0.00000000E+00  0.00000000E+00  0.00000000E+00  0.00000000E+00  0.00000000E+00
  0.00000000E+00  4.02486927E-02  2.37593957E-01  8.15853851E-01  1.00000000E+00
  1.00000000E+00  1.00000000E+00  0.00000000E+00  0.00000000E+00  0.00000000E+00
  0.00000000E+00  0.00000000E+00  0.00000000E+00  0.00000000E+00  3.65113974E-02
  2.37152983E-01  8.19701941E-01  1.00000000E+00  1.00000000E+00  1.00000000E+00
  0.00000000E+00  0.00000000E+00  0.00000000E+00  0.00000000E+00  0.00000000E+00
  0.00000000E+00  0.00000000E+00  4.02486927E-02  2.37593957E-01  8.15853851E-01
  1.00000000E+00  1.00000000E+00  1.00000000E+00  0.00000000E+00  0.00000000E+00
  0.00000000E+00  0.00000000E+00  0.00000000E+00  0.00000000E+00  0.00000000E+00
  0.00000000E+00  0.00000000E+00  0.00000000E+00  0.00000000E+00  0.00000000E+00
  0.00000000E+00  0.00000000E+00  0.00000000E+00  0.00000000E+00  0.00000000E+00
  0.00000000E+00  0.00000000E+00
Coordinates of each shell                  R   N=         240
  2.64100455E+00 -9.48921030E-03 -2.20106448E-04  2.64100455E+00 -9.48921030E-03
 -2.20106448E-04  2.64100455E+00 -9.48921030E-03 -2.20106448E-04  2.64100455E+00
 -9.48921030E-03 -2.20106448E-04  2.64100455E+00 -9.48921030E-03 -2.20106448E-04
  2.64100455E+00 -9.48921030E-03 -2.20106448E-04  4.68929270E+00 -7.20608494E-02
 -4.87029393E-04  4.68929270E+00 -7.20608494E-02 -4.87029393E-04  4.68929270E+00
 -7.20608494E-02 -4.87029393E-04  4.68929270E+00 -7.20608494E-02 -4.87029393E-04
 -2.62996006E+00  1.11480142E-01  4.69623985E-04 -2.62996006E+00  1.11480142E-01
  4.69623985E-04 -2.62996006E+00  1.11480142E-01  4.69623985E-04 -2.62996006E+00
  1.11480142E-01  4.69623985E-04 -2.62996006E+00  1.11480142E-01  4.69623985E-04
 -2.62996006E+00  1.11480142E-01  4.69623985E-04 -4.67237047E+00  1.95022759E-01
  7.38144974E-04 -4.67237047E+00  1.95022759E-01  7.38144974E-04 -4.67237047E+00
  1.95022759E-01  7.38144974E-04 -4.67237047E+00  1.95022759E-01  7.38144974E-04
  1.38888710E+00  2.31650986E+00 -1.60007221E-05  1.38888710E+00  2.31650986E+00
 -1.60007221E-05  1.38888710E+00  2.31650986E+00 -1.60007221E-05  1.38888710E+00
  2.31650986E+00 -1.60007221E-05  1.38888710E+00  2.31650986E+00 -1.60007221E-05
  1.38888710E+00  2.31650986E+00 -1.60007221E-05  2.45239756E+00  4.06611025E+00
 -1.23713461E-04  2.45239756E+00  4.06611025E+00 -1.23713461E-04  2.45239756E+00
  4.06611025E+00 -1.23713461E-04  2.45239756E+00  4.06611025E+00 -1.23713461E-04
  1.28589082E+00 -2.25473219E+00 -8.38979677E-05  1.28589082E+00 -2.25473219E+00
 -8.38979677E-05  1.28589082E+00 -2.25473219E+00 -8.38979677E-05  1.28589082E+00
 -2.25473219E+00 -8.38979677E-05  1.28589082E+00 -2.25473219E+00 -8.38979677E-05
  1.28589082E+00 -2.25473219E+00 -8.38979677E-05  2.22962110E+00 -4.07166371E+00
 -2.40264588E-04  2.22962110E+00 -4.07166371E+00 -2.40264588E-04  2.22962110E+00
 -4.07166371E+00 -2.40264588E-04  2.22962110E+00 -4.07166371E+00 -2.40264588E-04
 -1.23769595E+00  2.35589329E+00  3.26940466E-04 -1.23769595E+00  2.35589329E+00
  3.26940466E-04 -1.23769595E+00  2.35589329E+00  3.26940466E-04 -1.23769595E+00
  2.35589329E+00  3.26940466E-04 -1.23769595E+00  2.35589329E+00  3.26940466E-04
 -1.23769595E+00  2.35589329E+00  3.26940466E-04 -2.23726312E+00  4.14500911E+00
  4.89176566E-04 -2.23726312E+00  4.14500911E+00  4.89176566E-04 -2.23726312E+00
  4.14500911E+00  4.89176566E-04 -2.23726312E+00  4.14500911E+00  4.89176566E-04
 -1.36062797E+00 -2.20411095E+00  2.63321299E-04 -1.36062797E+00 -2.20411095E+00
  2.63321299E-04 -1.36062797E+00 -2.20411095E+00  2.63321299E-04 -1.36062797E+00
 -2.20411095E+00  2.63321299E-04 -1.36062797E+00 -2.20411095E+00  2.63321299E-04
 -1.36062797E+00 -2.20411095E+00  2.63321299E-04 -2.52363053E+00 -4.50847510E+00
  3.81271838E-04 -2.52363053E+00 -4.50847510E+00  3.81271838E-04 -2.52363053E+00
 -4.50847510E+00  3.81271838E-04 -2.52363053E+00 -4.50847510E+00  3.81271838E-04
 -2.52363053E+00 -4.50847510E+00  3.81271838E-04 -2.52363053E+00 -4.50847510E+00
  3.81271838E-04 -5.20680402E+00 -4.59525307E+00  6.75204879E-04 -5.20680402E+00
 -4.59525307E+00  6.75204879E-04 -5.20680402E+00 -4.59525307E+00  6.75204879E-04
 -5.20680402E+00 -4.59525307E+00  6.75204879E-04 -5.20680402E+00 -4.59525307E+00
  6.75204879E-04 -5.20680402E+00 -4.59525307E+00  6.75204879E-04 -5.70442699E+00
 -6.59178786E+00  6.85433442E-04 -5.70442699E+00 -6.59178786E+00  6.85433442E-04
 -5.70442699E+00 -6.59178786E+00  6.85433442E-04 -5.70442699E+00 -6.59178786E+00
  6.85433442E-04 -5.99365089E+00 -3.69434190E+00  1.69052463E+00 -5.99365089E+00
 -3.69434190E+00  1.69052463E+00 -5.99365089E+00 -3.69434190E+00  1.69052463E+00
 -5.99365089E+00 -3.69434190E+00  1.69052463E+00 -5.99402422E+00 -3.69426473E+00
 -1.68895888E+00 -5.99402422E+00 -3.69426473E+00 -1.68895888E+00 -5.99402422E+00
 -3.69426473E+00 -1.68895888E+00 -5.99402422E+00 -3.69426473E+00 -1.68895888E+00
Constraint Structure                       R   N=          48
  2.64100455E+00 -9.48921030E-03 -2.20106448E-04  4.68929270E+00 -7.20608494E-02
 -4.87029393E-04 -2.62996006E+00  1.11480142E-01  4.69623985E-04 -4.67237047E+00
  1.95022759E-01  7.38144974E-04  1.38888710E+00  2.31650986E+00 -1.60007221E-05
  2.45239756E+00  4.06611025E+00 -1.23713461E-04  1.28589082E+00 -2.25473219E+00
 -8.38979677E-05  2.22962110E+00 -4.07166371E+00 -2.40264588E-04 -1.23769595E+00
  2.35589329E+00  3.26940466E-04 -2.23726312E+00  4.14500911E+00  4.89176566E-04
 -1.36062797E+00 -2.20411095E+00  2.63321299E-04 -2.52363053E+00 -4.50847510E+00
  3.81271838E-04 -5.20680402E+00 -4.59525307E+00  6.75204879E-04 -5.70442699E+00
 -6.59178786E+00  6.85433442E-04 -5.99365089E+00 -3.69434190E+00  1.69052463E+00
 -5.99402422E+00 -3.69426473E+00 -1.68895888E+00
Num ILSW                                   I              100
ILSW                                       I   N=         100
           0           0           0           0           2           0
           0           0           3           0         402          -1
           0           0           0           0           2           0
           0           0           0           0           1           0
           1           1           0           0           0           0
           0           0      100000           0          -1           0
           0           0           0           0           0           0
           0           0           0           1           0           0
           0           0           1           0           0           0
           0           0           4          40           0           0
           0           0           5           0           0           0
           0           0           0           0           0           0
           0           0           0           0           0           0
           0           0           0           0           0           0
           0           0           0           0           0           0
           0           0           0           0           0           0
           0           0           0           0
Num RLSW                                   I               40
RLSW                                       R   N=          40
  8.00000000E-01  7.20000000E-01  1.00000000E+00  8.10000000E-01  2.00000000E-01
  0.00000000E+00  0.00000000E+00  1.00000000E+00  0.00000000E+00  0.00000000E+00
  0.00000000E+00  0.00000000E+00  1.00000000E+00  0.00000000E+00  0.00000000E+00
  0.00000000E+00  0.00000000E+00  1.00000000E+00  0.00000000E+00  0.00000000E+00
  0.00000000E+00  0.00000000E+00  1.00000000E+00  0.00000000E+00  0.00000000E+00
  0.00000000E+00  0.00000000E+00  1.00000000E+00  0.00000000E+00  0.00000000E+00
  0.00000000E+00  0.00000000E+00  1.00000000E+00  0.00000000E+00  0.00000000E+00
  0.00000000E+00  0.00000000E+00  0.00000000E+00  1.00000000E+00  1.00000000E+00
MxBond                                     I                4
NBond                                      I   N=          16
           3           1           3           1           3           1
           3           1           3           1           3           2
           4           1           1           1
IBond                                      I   N=          64
           2           5           7           0           1           0
           0           0           4           9          11           0
           3           0           0           0           1           6
           9           0           5           0           0           0
           1           8          11           0           7           0
           0           0           3           5          10           0
           9           0           0           0           3           7
          12           0          11          13           0           0
          12          14          15          16          13           0
           0           0          13           0           0           0
          13           0           0           0
RBond                                      R   N=          64
  1.00000000E+00  1.50000000E+00  1.50000000E+00  0.00000000E+00  1.00000000E+00
  0.00000000E+00  0.00000000E+00  0.00000000E+00  1.00000000E+00  1.50000000E+00
  1.50000000E+00  0.00000000E+00  1.00000000E+00  0.00000000E+00  0.00000000E+00
  0.00000000E+00  1.50000000E+00  1.00000000E+00  1.50000000E+00  0.00000000E+00
  1.00000000E+00  0.00000000E+00  0.00000000E+00  0.00000000E+00  1.50000000E+00
  1.00000000E+00  1.50000000E+00  0.00000000E+00  1.00000000E+00  0.00000000E+00
  0.00000000E+00  0.00000000E+00  1.50000000E+00  1.50000000E+00  1.00000000E+00
  0.00000000E+00  1.00000000E+00  0.00000000E+00  0.00000000E+00  0.00000000E+00
  1.50000000E+00  1.50000000E+00  1.00000000E+00  0.00000000E+00  1.00000000E+00
  1.00000000E+00  0.00000000E+00  0.00000000E+00  1.00000000E+00  1.00000000E+00
  1.00000000E+00  1.00000000E+00  1.00000000E+00  0.00000000E+00  0.00000000E+00
  0.00000000E+00  1.00000000E+00  0.00000000E+00  0.00000000E+00  0.00000000E+00
  1.00000000E+00  0.00000000E+00  0.00000000E+00  0.00000000E+00
Virial Ratio                               R      2.004337383074295E+00
SCF Energy                                 R     -3.468675412808773E+02
Total Energy                               R     -3.468675412808773E+02
RMS Force                                  R      5.320644282267794E-06
RMS Density                                R      2.519098510641819E-09
External E-field                           R   N=          35
  0.00000000E+00  0.00000000E+00  0.00000000E+00  0.00000000E+00  0.00000000E+00
  0.00000000E+00  0.00000000E+00  0.00000000E+00  0.00000000E+00  0.00000000E+00
  0.00000000E+00  0.00000000E+00  0.00000000E+00  0.00000000E+00  0.00000000E+00
  0.00000000E+00  0.00000000E+00  0.00000000E+00  0.00000000E+00  0.00000000E+00
  0.00000000E+00  0.00000000E+00  0.00000000E+00  0.00000000E+00  0.00000000E+00
  0.00000000E+00  0.00000000E+00  0.00000000E+00  0.00000000E+00  0.00000000E+00
  0.00000000E+00  0.00000000E+00  0.00000000E+00  0.00000000E+00  0.00000000E+00
IOpCl                                      I                0
IROHF                                      I                0
Alpha Orbital Energies                     R   N=         224
 -1.91573391E+01 -1.02375134E+01 -1.02289195E+01 -1.01791385E+01 -1.01776761E+01
 -1.01761844E+01 -1.01718294E+01 -1.01700371E+01 -1.07251331E+00 -8.57054798E-01
 -7.62798166E-01 -7.51625837E-01 -7.01202682E-01 -6.15306093E-01 -5.96183012E-01
 -5.42861053E-01 -4.91224344E-01 -4.84895450E-01 -4.75586044E-01 -4.51815423E-01
 -4.29720951E-01 -4.19845829E-01 -3.84868866E-01 -3.72850507E-01 -3.63901143E-01
 -3.33739851E-01 -3.28140409E-01 -2.59720623E-01 -2.28917076E-01 -1.68514307E-02
 -2.52588951E-03  4.74803069E-04  1.41715454E-02  2.26329748E-02  3.49808959E-02
  3.91381881E-02  4.46355947E-02  5.02464194E-02  6.98752314E-02  7.25282849E-02
  7.46792713E-02  8.84190383E-02  9.13194043E-02  1.09675008E-01  1.16514561E-01
  1.26739622E-01  1.30446861E-01  1.33334026E-01  1.42994561E-01  1.47690659E-01
  1.52065336E-01  1.52491415E-01  1.57587117E-01  1.75441003E-01  1.78732927E-01
  1.83094538E-01  1.96906985E-01  2.03743707E-01  2.05540641E-01  2.09905235E-01
  2.13426498E-01  2.20714126E-01  2.26542791E-01  2.33080847E-01  2.41608921E-01
  2.45451448E-01  2.54863081E-01  2.61294816E-01  2.73543064E-01  2.76060011E-01
  2.85173639E-01  3.13495921E-01  3.22307539E-01  3.33539690E-01  3.50036699E-01
  3.60211937E-01  3.74176960E-01  3.87229271E-01  4.25387520E-01  4.44089930E-01
  4.81717299E-01  5.13271814E-01  5.30932877E-01  5.34726570E-01  5.35661923E-01
  5.36643834E-01  5.46276166E-01  5.72905524E-01  5.86760531E-01  5.91269100E-01
  6.03247702E-01  6.22695280E-01  6.24786776E-01  6.32311229E-01  6.45792238E-01
  6.64755112E-01  6.80374793E-01  6.97063771E-01  7.01466022E-01  7.24475940E-01
  7.34398106E-01  7.48926928E-01  7.72233058E-01  7.94488923E-01  8.27283355E-01
  8.34490093E-01  8.45518278E-01  8.55837734E-01  8.62286213E-01  8.72147568E-01
  9.05840409E-01  9.43663708E-01  9.79163284E-01  9.88542669E-01  1.00616825E+00
  1.00924971E+00  1.01999049E+00  1.02845060E+00  1.07933378E+00  1.08475115E+00
  1.09233400E+00  1.12856384E+00  1.14925783E+00  1.27295481E+00  1.28543333E+00
  1.28645183E+00  1.34297070E+00  1.41645491E+00  1.42894174E+00  1.46185715E+00
  1.49291839E+00  1.51566441E+00  1.52652606E+00  1.55272956E+00  1.56784302E+00
  1.57109983E+00  1.57551492E+00  1.60663660E+00  1.64236369E+00  1.65220556E+00
  1.68470769E+00  1.68476389E+00  1.70305804E+00  1.71958267E+00  1.73968987E+00
  1.77417310E+00  1.77579215E+00  1.79865626E+00  1.83534622E+00  1.88590254E+00
  1.91158431E+00  1.92877642E+00  1.94471013E+00  1.95440645E+00  1.96083912E+00