anisol                                                                  
Freq      RB3LYP TD-FC                                                6-311+G(d,p)        
Number of atoms                            I               16
Info1-9                                    I   N=           9
          27          27        1001           0           0         101
           6         218        -501
Charge                                     I                0
Multiplicity                               I                1
Number of electrons                        I               58
Number of alpha electrons                  I               29
Number of beta electrons                   I               29
Number of basis functions                  I              224
Number of independent functions            I              224
Number of point charges in /Mol/           I                0
Number of translation vectors              I                0
Atomic numbers                             I   N=          16
           6           1           6           1           6           1
           6           1           6           1           6           8
           6           1           1           1
Nuclear charges                            R   N=          16
  6.00000000E+00  1.00000000E+00  6.00000000E+00  1.00000000E+00  6.00000000E+00
  1.00000000E+00  6.00000000E+00  1.00000000E+00  6.00000000E+00  1.00000000E+00
  6.00000000E+00  8.00000000E+00  6.00000000E+00  1.00000000E+00  1.00000000E+00
  1.00000000E+00
Current cartesian coordinates              R   N=          48
  2.71830679E+00 -2.06320299E-02 -2.09759601E-04  4.76155428E+00 -4.71411081E-02
 -4.55423998E-04 -2.71337272E+00  1.55768235E-01  4.64872629E-04 -4.75297870E+00
  2.08278055E-01  7.27544561E-04  1.40133397E+00  2.30106849E+00 -9.44863066E-06
  2.47201312E+00  4.04902548E+00 -1.11493842E-04  1.31777217E+00 -2.31991473E+00
 -9.07068544E-05  2.20224526E+00 -4.16076687E+00 -2.49443850E-04 -1.27486972E+00
  2.43425828E+00  3.19363716E-04 -2.21556405E+00  4.24823096E+00  4.62982903E-04
 -1.36956768E+00 -2.16930545E+00  2.51333576E-04 -2.53054927E+00 -4.43957518E+00
  3.53378787E-04 -5.22504362E+00 -4.62500833E+00  6.82191134E-04 -5.63799981E+00
 -6.63831122E+00  6.91639765E-04 -6.01311233E+00 -3.74109838E+00  1.69205511E+00
 -6.01352807E+00 -3.74103035E+00 -1.69046207E+00
Number of symbols in /Mol/                 I                0
Force Field                                I                0
Atom Types                                 C   N=          16
                                                            
                                                            
                                                            
            
Int Atom Types                             I   N=          16
           0           0           0           0           0           0
           0           0           0           0           0           0
           0           0           0           0
MM charges                                 R   N=          16
  0.00000000E+00  0.00000000E+00  0.00000000E+00  0.00000000E+00  0.00000000E+00
  0.00000000E+00  0.00000000E+00  0.00000000E+00  0.00000000E+00  0.00000000E+00
  0.00000000E+00  0.00000000E+00  0.00000000E+00  0.00000000E+00  0.00000000E+00
  0.00000000E+00
Integer atomic weights                     I   N=          16
          12           1          12           1          12           1
          12           1          12           1          12          16
          12           1           1           1
Real atomic weights                        R   N=          16
  1.20000000E+01  1.00782504E+00  1.20000000E+01  1.00782504E+00  1.20000000E+01
  1.00782504E+00  1.20000000E+01  1.00782504E+00  1.20000000E+01  1.00782504E+00
  1.20000000E+01  1.59949146E+01  1.20000000E+01  1.00782504E+00  1.00782504E+00
  1.00782504E+00
Atom fragment info                         I   N=          16
           0           0           0           0           0           0
           0           0           0           0           0           0
           0           0           0           0
Atom residue num                           I   N=          16
           0           0           0           0           0           0
           0           0           0           0           0           0
           0           0           0           0
Nuclear spins                              I   N=          16
           0           1           0           1           0           1
           0           1           0           1           0           0
           0           1           1           1
Nuclear ZEff                               R   N=          16
 -3.60000000E+00 -1.00000000E+00 -3.60000000E+00 -1.00000000E+00 -3.60000000E+00
 -1.00000000E+00 -3.60000000E+00 -1.00000000E+00 -3.60000000E+00 -1.00000000E+00
 -3.60000000E+00 -5.60000000E+00 -3.60000000E+00 -1.00000000E+00 -1.00000000E+00
 -1.00000000E+00
Nuclear QMom                               R   N=          16
  0.00000000E+00  0.00000000E+00  0.00000000E+00  0.00000000E+00  0.00000000E+00
  0.00000000E+00  0.00000000E+00  0.00000000E+00  0.00000000E+00  0.00000000E+00
  0.00000000E+00  0.00000000E+00  0.00000000E+00  0.00000000E+00  0.00000000E+00
  0.00000000E+00
Nuclear GFac                               R   N=          16
  0.00000000E+00  2.79284600E+00  0.00000000E+00  2.79284600E+00  0.00000000E+00
  2.79284600E+00  0.00000000E+00  2.79284600E+00  0.00000000E+00  2.79284600E+00
  0.00000000E+00  0.00000000E+00  0.00000000E+00  2.79284600E+00  2.79284600E+00
  2.79284600E+00
MicOpt                                     I   N=          16
          -1          -1          -1          -1          -1          -1
          -1          -1          -1          -1          -1          -1
          -1          -1          -1          -1
Number of residues                         I                0
Number of secondary structures             I                0
Number of contracted shells                I               80
Number of primitive shells                 I              152
Pure/Cartesian d shells                    I                0
Pure/Cartesian f shells                    I                0
Highest angular momentum                   I                2
Largest degree of contraction              I                6
Shell types                                I   N=          80
           0          -1          -1          -1          -1          -2
           0           0           0           1           0          -1
          -1          -1          -1          -2           0           0
           0           1           0          -1          -1          -1
          -1          -2           0           0           0           1
           0          -1          -1          -1          -1          -2
           0           0           0           1           0          -1
          -1          -1          -1          -2           0           0
           0           1           0          -1          -1          -1
          -1          -2           0          -1          -1          -1
          -1          -2           0          -1          -1          -1
          -1          -2           0           0           0           1
           0           0           0           1           0           0
           0           1
Number of primitives per shell             I   N=          80
           6           3           1           1           1           1
           3           1           1           1           6           3
           1           1           1           1           3           1
           1           1           6           3           1           1
           1           1           3           1           1           1
           6           3           1           1           1           1
           3           1           1           1           6           3
           1           1           1           1           3           1
           1           1           6           3           1           1
           1           1           6           3           1           1
           1           1           6           3           1           1
           1           1           3           1           1           1
           3           1           1           1           3           1
           1           1
Shell to atom map                          I   N=          80
           1           1           1           1           1           1
           2           2           2           2           3           3
           3           3           3           3           4           4
           4           4           5           5           5           5
           5           5           6           6           6           6
           7           7           7           7           7           7
           8           8           8           8           9           9
           9           9           9           9          10          10
          10          10          11          11          11          11
          11          11          12          12          12          12
          12          12          13          13          13          13
          13          13          14          14          14          14
          15          15          15          15          16          16
          16          16
Primitive exponents                        R   N=         152
  4.56324000E+03  6.82024000E+02  1.54973000E+02  4.44553000E+01  1.30290000E+01
  1.82773000E+00  2.09642000E+01  4.80331000E+00  1.45933000E+00  4.83456000E-01
  1.45585000E-01  4.38000000E-02  6.26000000E-01  3.38650000E+01  5.09479000E+00
  1.15879000E+00  3.25840000E-01  1.02741000E-01  7.50000000E-01  4.56324000E+03
  6.82024000E+02  1.54973000E+02  4.44553000E+01  1.30290000E+01  1.82773000E+00
  2.09642000E+01  4.80331000E+00  1.45933000E+00  4.83456000E-01  1.45585000E-01
  4.38000000E-02  6.26000000E-01  3.38650000E+01  5.09479000E+00  1.15879000E+00
  3.25840000E-01  1.02741000E-01  7.50000000E-01  4.56324000E+03  6.82024000E+02
  1.54973000E+02  4.44553000E+01  1.30290000E+01  1.82773000E+00  2.09642000E+01
  4.80331000E+00  1.45933000E+00  4.83456000E-01  1.45585000E-01  4.38000000E-02
  6.26000000E-01  3.38650000E+01  5.09479000E+00  1.15879000E+00  3.25840000E-01
  1.02741000E-01  7.50000000E-01  4.56324000E+03  6.82024000E+02  1.54973000E+02
  4.44553000E+01  1.30290000E+01  1.82773000E+00  2.09642000E+01  4.80331000E+00
  1.45933000E+00  4.83456000E-01  1.45585000E-01  4.38000000E-02  6.26000000E-01
  3.38650000E+01  5.09479000E+00  1.15879000E+00  3.25840000E-01  1.02741000E-01
  7.50000000E-01  4.56324000E+03  6.82024000E+02  1.54973000E+02  4.44553000E+01
  1.30290000E+01  1.82773000E+00  2.09642000E+01  4.80331000E+00  1.45933000E+00
  4.83456000E-01  1.45585000E-01  4.38000000E-02  6.26000000E-01  3.38650000E+01
  5.09479000E+00  1.15879000E+00  3.25840000E-01  1.02741000E-01  7.50000000E-01
  4.56324000E+03  6.82024000E+02  1.54973000E+02  4.44553000E+01  1.30290000E+01
  1.82773000E+00  2.09642000E+01  4.80331000E+00  1.45933000E+00  4.83456000E-01
  1.45585000E-01  4.38000000E-02  6.26000000E-01  8.58850000E+03  1.29723000E+03
  2.99296000E+02  8.73771000E+01  2.56789000E+01  3.74004000E+00  4.21175000E+01
  9.62837000E+00  2.85332000E+00  9.05661000E-01  2.55611000E-01  8.45000000E-02
  1.29200000E+00  4.56324000E+03  6.82024000E+02  1.54973000E+02  4.44553000E+01
  1.30290000E+01  1.82773000E+00  2.09642000E+01  4.80331000E+00  1.45933000E+00
  4.83456000E-01  1.45585000E-01  4.38000000E-02  6.26000000E-01  3.38650000E+01
  5.09479000E+00  1.15879000E+00  3.25840000E-01  1.02741000E-01  7.50000000E-01
  3.38650000E+01  5.09479000E+00  1.15879000E+00  3.25840000E-01  1.02741000E-01
  7.50000000E-01  3.38650000E+01  5.09479000E+00  1.15879000E+00  3.25840000E-01
  1.02741000E-01  7.50000000E-01
Contraction coefficients                   R   N=         152
  1.96665025E-03  1.52306019E-02  7.61269097E-02  2.60801033E-01  6.16462078E-01
  2.21006028E-01  1.14660081E-01  9.19999648E-01 -3.03068213E-03  1.00000000E+00
  1.00000000E+00  1.00000000E+00  1.00000000E+00  2.54938145E-02  1.90373109E-01
  8.52161486E-01  1.00000000E+00  1.00000000E+00  1.00000000E+00  1.96665025E-03
  1.52306019E-02  7.61269097E-02  2.60801033E-01  6.16462078E-01  2.21006028E-01
  1.14660081E-01  9.19999648E-01 -3.03068213E-03  1.00000000E+00  1.00000000E+00
  1.00000000E+00  1.00000000E+00  2.54938145E-02  1.90373109E-01  8.52161486E-01
  1.00000000E+00  1.00000000E+00  1.00000000E+00  1.96665025E-03  1.52306019E-02
  7.61269097E-02  2.60801033E-01  6.16462078E-01  2.21006028E-01  1.14660081E-01
  9.19999648E-01 -3.03068213E-03  1.00000000E+00  1.00000000E+00  1.00000000E+00
  1.00000000E+00  2.54938145E-02  1.90373109E-01  8.52161486E-01  1.00000000E+00
  1.00000000E+00  1.00000000E+00  1.96665025E-03  1.52306019E-02  7.61269097E-02
  2.60801033E-01  6.16462078E-01  2.21006028E-01  1.14660081E-01  9.19999648E-01
 -3.03068213E-03  1.00000000E+00  1.00000000E+00  1.00000000E+00  1.00000000E+00
  2.54938145E-02  1.90373109E-01  8.52161486E-01  1.00000000E+00  1.00000000E+00
  1.00000000E+00  1.96665025E-03  1.52306019E-02  7.61269097E-02  2.60801033E-01
  6.16462078E-01  2.21006028E-01  1.14660081E-01  9.19999648E-01 -3.03068213E-03
  1.00000000E+00  1.00000000E+00  1.00000000E+00  1.00000000E+00  2.54938145E-02
  1.90373109E-01  8.52161486E-01  1.00000000E+00  1.00000000E+00  1.00000000E+00
  1.96665025E-03  1.52306019E-02  7.61269097E-02  2.60801033E-01  6.16462078E-01
  2.21006028E-01  1.14660081E-01  9.19999648E-01 -3.03068213E-03  1.00000000E+00
  1.00000000E+00  1.00000000E+00  1.00000000E+00  1.89515008E-03  1.43859006E-02
  7.07320031E-02  2.40001011E-01  5.94797026E-01  2.80802012E-01  1.13889012E-01
  9.20811101E-01 -3.27447036E-03  1.00000000E+00  1.00000000E+00  1.00000000E+00
  1.00000000E+00  1.96665025E-03  1.52306019E-02  7.61269097E-02  2.60801033E-01
  6.16462078E-01  2.21006028E-01  1.14660081E-01  9.19999648E-01 -3.03068213E-03
  1.00000000E+00  1.00000000E+00  1.00000000E+00  1.00000000E+00  2.54938145E-02
  1.90373109E-01  8.52161486E-01  1.00000000E+00  1.00000000E+00  1.00000000E+00
  2.54938145E-02  1.90373109E-01  8.52161486E-01  1.00000000E+00  1.00000000E+00
  1.00000000E+00  2.54938145E-02  1.90373109E-01  8.52161486E-01  1.00000000E+00
  1.00000000E+00  1.00000000E+00
P(S=P) Contraction coefficients            R   N=         152
  0.00000000E+00  0.00000000E+00  0.00000000E+00  0.00000000E+00  0.00000000E+00
  0.00000000E+00  4.02486927E-02  2.37593957E-01  8.15853851E-01  1.00000000E+00
  1.00000000E+00  1.00000000E+00  0.00000000E+00  0.00000000E+00  0.00000000E+00
  0.00000000E+00  0.00000000E+00  0.00000000E+00  0.00000000E+00  0.00000000E+00
  0.00000000E+00  0.00000000E+00  0.00000000E+00  0.00000000E+00  0.00000000E+00
  4.02486927E-02  2.37593957E-01  8.15853851E-01  1.00000000E+00  1.00000000E+00
  1.00000000E+00  0.00000000E+00  0.00000000E+00  0.00000000E+00  0.00000000E+00
  0.00000000E+00  0.00000000E+00  0.00000000E+00  0.00000000E+00  0.00000000E+00
  0.00000000E+00  0.00000000E+00  0.00000000E+00  0.00000000E+00  4.02486927E-02
  2.37593957E-01  8.15853851E-01  1.00000000E+00  1.00000000E+00  1.00000000E+00
  0.00000000E+00  0.00000000E+00  0.00000000E+00  0.00000000E+00  0.00000000E+00
  0.00000000E+00  0.00000000E+00  0.00000000E+00  0.00000000E+00  0.00000000E+00
  0.00000000E+00  0.00000000E+00  0.00000000E+00  4.02486927E-02  2.37593957E-01
  8.15853851E-01  1.00000000E+00  1.00000000E+00  1.00000000E+00  0.00000000E+00
  0.00000000E+00  0.00000000E+00  0.00000000E+00  0.00000000E+00  0.00000000E+00
  0.00000000E+00  0.00000000E+00  0.00000000E+00  0.00000000E+00  0.00000000E+00
  0.00000000E+00  0.00000000E+00  4.02486927E-02  2.37593957E-01  8.15853851E-01
  1.00000000E+00  1.00000000E+00  1.00000000E+00  0.00000000E+00  0.00000000E+00
  0.00000000E+00  0.00000000E+00  0.00000000E+00  0.00000000E+00  0.00000000E+00
  0.00000000E+00  0.00000000E+00  0.00000000E+00  0.00000000E+00  0.00000000E+00
  0.00000000E+00  4.02486927E-02  2.37593957E-01  8.15853851E-01  1.00000000E+00
  1.00000000E+00  1.00000000E+00  0.00000000E+00  0.00000000E+00  0.00000000E+00
  0.00000000E+00  0.00000000E+00  0.00000000E+00  0.00000000E+00  3.65113974E-02
  2.37152983E-01  8.19701941E-01  1.00000000E+00  1.00000000E+00  1.00000000E+00
  0.00000000E+00  0.00000000E+00  0.00000000E+00  0.00000000E+00  0.00000000E+00
  0.00000000E+00  0.00000000E+00  4.02486927E-02  2.37593957E-01  8.15853851E-01
  1.00000000E+00  1.00000000E+00  1.00000000E+00  0.00000000E+00  0.00000000E+00
  0.00000000E+00  0.00000000E+00  0.00000000E+00  0.00000000E+00  0.00000000E+00
  0.00000000E+00  0.00000000E+00  0.00000000E+00  0.00000000E+00  0.00000000E+00
  0.00000000E+00  0.00000000E+00  0.00000000E+00  0.00000000E+00  0.00000000E+00
  0.00000000E+00  0.00000000E+00
Coordinates of each shell                  R   N=         240
  2.71830679E+00 -2.06320299E-02 -2.09759601E-04  2.71830679E+00 -2.06320299E-02
 -2.09759601E-04  2.71830679E+00 -2.06320299E-02 -2.09759601E-04  2.71830679E+00
 -2.06320299E-02 -2.09759601E-04  2.71830679E+00 -2.06320299E-02 -2.09759601E-04
  2.71830679E+00 -2.06320299E-02 -2.09759601E-04  4.76155428E+00 -4.71411081E-02
 -4.55423998E-04  4.76155428E+00 -4.71411081E-02 -4.55423998E-04  4.76155428E+00
 -4.71411081E-02 -4.55423998E-04  4.76155428E+00 -4.71411081E-02 -4.55423998E-04
 -2.71337272E+00  1.55768235E-01  4.64872629E-04 -2.71337272E+00  1.55768235E-01
  4.64872629E-04 -2.71337272E+00  1.55768235E-01  4.64872629E-04 -2.71337272E+00
  1.55768235E-01  4.64872629E-04 -2.71337272E+00  1.55768235E-01  4.64872629E-04
 -2.71337272E+00  1.55768235E-01  4.64872629E-04 -4.75297870E+00  2.08278055E-01
  7.27544561E-04 -4.75297870E+00  2.08278055E-01  7.27544561E-04 -4.75297870E+00
  2.08278055E-01  7.27544561E-04 -4.75297870E+00  2.08278055E-01  7.27544561E-04
  1.40133397E+00  2.30106849E+00 -9.44863066E-06  1.40133397E+00  2.30106849E+00
 -9.44863066E-06  1.40133397E+00  2.30106849E+00 -9.44863066E-06  1.40133397E+00
  2.30106849E+00 -9.44863066E-06  1.40133397E+00  2.30106849E+00 -9.44863066E-06
  1.40133397E+00  2.30106849E+00 -9.44863066E-06  2.47201312E+00  4.04902548E+00
 -1.11493842E-04  2.47201312E+00  4.04902548E+00 -1.11493842E-04  2.47201312E+00
  4.04902548E+00 -1.11493842E-04  2.47201312E+00  4.04902548E+00 -1.11493842E-04
  1.31777217E+00 -2.31991473E+00 -9.07068544E-05  1.31777217E+00 -2.31991473E+00
 -9.07068544E-05  1.31777217E+00 -2.31991473E+00 -9.07068544E-05  1.31777217E+00
 -2.31991473E+00 -9.07068544E-05  1.31777217E+00 -2.31991473E+00 -9.07068544E-05
  1.31777217E+00 -2.31991473E+00 -9.07068544E-05  2.20224526E+00 -4.16076687E+00
 -2.49443850E-04  2.20224526E+00 -4.16076687E+00 -2.49443850E-04  2.20224526E+00
 -4.16076687E+00 -2.49443850E-04  2.20224526E+00 -4.16076687E+00 -2.49443850E-04
 -1.27486972E+00  2.43425828E+00  3.19363716E-04 -1.27486972E+00  2.43425828E+00
  3.19363716E-04 -1.27486972E+00  2.43425828E+00  3.19363716E-04 -1.27486972E+00
  2.43425828E+00  3.19363716E-04 -1.27486972E+00  2.43425828E+00  3.19363716E-04
 -1.27486972E+00  2.43425828E+00  3.19363716E-04 -2.21556405E+00  4.24823096E+00
  4.62982903E-04 -2.21556405E+00  4.24823096E+00  4.62982903E-04 -2.21556405E+00
  4.24823096E+00  4.62982903E-04 -2.21556405E+00  4.24823096E+00  4.62982903E-04
 -1.36956768E+00 -2.16930545E+00  2.51333576E-04 -1.36956768E+00 -2.16930545E+00
  2.51333576E-04 -1.36956768E+00 -2.16930545E+00  2.51333576E-04 -1.36956768E+00
 -2.16930545E+00  2.51333576E-04 -1.36956768E+00 -2.16930545E+00  2.51333576E-04
 -1.36956768E+00 -2.16930545E+00  2.51333576E-04 -2.53054927E+00 -4.43957518E+00
  3.53378787E-04 -2.53054927E+00 -4.43957518E+00  3.53378787E-04 -2.53054927E+00
 -4.43957518E+00  3.53378787E-04 -2.53054927E+00 -4.43957518E+00  3.53378787E-04
 -2.53054927E+00 -4.43957518E+00  3.53378787E-04 -2.53054927E+00 -4.43957518E+00
  3.53378787E-04 -5.22504362E+00 -4.62500833E+00  6.82191134E-04 -5.22504362E+00
 -4.62500833E+00  6.82191134E-04 -5.22504362E+00 -4.62500833E+00  6.82191134E-04
 -5.22504362E+00 -4.62500833E+00  6.82191134E-04 -5.22504362E+00 -4.62500833E+00
  6.82191134E-04 -5.22504362E+00 -4.62500833E+00  6.82191134E-04 -5.63799981E+00
 -6.63831122E+00  6.91639765E-04 -5.63799981E+00 -6.63831122E+00  6.91639765E-04
 -5.63799981E+00 -6.63831122E+00  6.91639765E-04 -5.63799981E+00 -6.63831122E+00
  6.91639765E-04 -6.01311233E+00 -3.74109838E+00  1.69205511E+00 -6.01311233E+00
 -3.74109838E+00  1.69205511E+00 -6.01311233E+00 -3.74109838E+00  1.69205511E+00
 -6.01311233E+00 -3.74109838E+00  1.69205511E+00 -6.01352807E+00 -3.74103035E+00
 -1.69046207E+00 -6.01352807E+00 -3.74103035E+00 -1.69046207E+00 -6.01352807E+00
 -3.74103035E+00 -1.69046207E+00 -6.01352807E+00 -3.74103035E+00 -1.69046207E+00
Constraint Structure                       R   N=          48
  2.71830679E+00 -2.06320299E-02 -2.09759601E-04  4.76155428E+00 -4.71411081E-02
 -4.55423998E-04 -2.71337272E+00  1.55768235E-01  4.64872629E-04 -4.75297870E+00
  2.08278055E-01  7.27544561E-04  1.40133397E+00  2.30106849E+00 -9.44863066E-06
  2.47201312E+00  4.04902548E+00 -1.11493842E-04  1.31777217E+00 -2.31991473E+00
 -9.07068544E-05  2.20224526E+00 -4.16076687E+00 -2.49443850E-04 -1.27486972E+00
  2.43425828E+00  3.19363716E-04 -2.21556405E+00  4.24823096E+00  4.62982903E-04
 -1.36956768E+00 -2.16930545E+00  2.51333576E-04 -2.53054927E+00 -4.43957518E+00
  3.53378787E-04 -5.22504362E+00 -4.62500833E+00  6.82191134E-04 -5.63799981E+00
 -6.63831122E+00  6.91639765E-04 -6.01311233E+00 -3.74109838E+00  1.69205511E+00
 -6.01352807E+00 -3.74103035E+00 -1.69046207E+00
Num ILSW                                   I              100
ILSW                                       I   N=         100
           0           0           0           0           2           0
           0           0           3           0         402          -1
           0           0           0           0           2           0
           0           0           0           0           1           0
           1           1           0           0           0           0
           0           0      100000           0          -1           0
           0           0           0           0           0           0
           0           0           0           1           0           0
           0           0           1           0           0           0
           0           0           4          40           0           0
           0           0           5           0           0           0
           0           0           0           0           0           0
           0           0           0           0           0           0
           0           0           0           0           0           0
           0           0           0           0           0           0
           0           0           0           0           0           0
           0           0           0           0
Num RLSW                                   I               40
RLSW                                       R   N=          40
  8.00000000E-01  7.20000000E-01  1.00000000E+00  8.10000000E-01  2.00000000E-01
  0.00000000E+00  0.00000000E+00  1.00000000E+00  0.00000000E+00  0.00000000E+00
  0.00000000E+00  0.00000000E+00  1.00000000E+00  0.00000000E+00  0.00000000E+00
  0.00000000E+00  0.00000000E+00  1.00000000E+00  0.00000000E+00  0.00000000E+00
  0.00000000E+00  0.00000000E+00  1.00000000E+00  0.00000000E+00  0.00000000E+00
  0.00000000E+00  0.00000000E+00  1.00000000E+00  0.00000000E+00  0.00000000E+00
  0.00000000E+00  0.00000000E+00  1.00000000E+00  0.00000000E+00  0.00000000E+00
  0.00000000E+00  0.00000000E+00  0.00000000E+00  1.00000000E+00  1.00000000E+00
MxBond                                     I                4
NBond                                      I   N=          16
           3           1           3           1           3           1
           3           1           3           1           3           2
           4           1           1           1
IBond                                      I   N=          64
           2           5           7           0           1           0
           0           0           4           9          11           0
           3           0           0           0           1           6
           9           0           5           0           0           0
           1           8          11           0           7           0
           0           0           3           5          10           0
           9           0           0           0           3           7
          12           0          11          13           0           0
          12          14          15          16          13           0
           0           0          13           0           0           0
          13           0           0           0
RBond                                      R   N=          64
  1.00000000E+00  1.50000000E+00  1.50000000E+00  0.00000000E+00  1.00000000E+00
  0.00000000E+00  0.00000000E+00  0.00000000E+00  1.00000000E+00  1.50000000E+00
  1.50000000E+00  0.00000000E+00  1.00000000E+00  0.00000000E+00  0.00000000E+00
  0.00000000E+00  1.50000000E+00  1.00000000E+00  1.50000000E+00  0.00000000E+00
  1.00000000E+00  0.00000000E+00  0.00000000E+00  0.00000000E+00  1.50000000E+00
  1.00000000E+00  1.50000000E+00  0.00000000E+00  1.00000000E+00  0.00000000E+00
  0.00000000E+00  0.00000000E+00  1.50000000E+00  1.50000000E+00  1.00000000E+00
  0.00000000E+00  1.00000000E+00  0.00000000E+00  0.00000000E+00  0.00000000E+00
  1.50000000E+00  1.50000000E+00  1.50000000E+00  0.00000000E+00  1.50000000E+00
  1.00000000E+00  0.00000000E+00  0.00000000E+00  1.00000000E+00  1.00000000E+00
  1.00000000E+00  1.00000000E+00  1.00000000E+00  0.00000000E+00  0.00000000E+00
  0.00000000E+00  1.00000000E+00  0.00000000E+00  0.00000000E+00  0.00000000E+00
  1.00000000E+00  0.00000000E+00  0.00000000E+00  0.00000000E+00
Virial Ratio                               R      2.005241897941624E+00
SCF Energy                                 R     -3.468620874040628E+02
CIS Energy                                 R     -3.466885469613174E+02
Total Energy                               R     -3.466885469613174E+02
Post-SCF wavefunction norm                 R      1.000000000000000E+00
RMS Force                                  R      6.310395942917683E-06
RMS Density                                R      2.651010646529239E-09
External E-field                           R   N=          35
  0.00000000E+00  0.00000000E+00  0.00000000E+00  0.00000000E+00  0.00000000E+00
  0.00000000E+00  0.00000000E+00  0.00000000E+00  0.00000000E+00  0.00000000E+00
  0.00000000E+00  0.00000000E+00  0.00000000E+00  0.00000000E+00  0.00000000E+00
  0.00000000E+00  0.00000000E+00  0.00000000E+00  0.00000000E+00  0.00000000E+00
  0.00000000E+00  0.00000000E+00  0.00000000E+00  0.00000000E+00  0.00000000E+00
  0.00000000E+00  0.00000000E+00  0.00000000E+00  0.00000000E+00  0.00000000E+00
  0.00000000E+00  0.00000000E+00  0.00000000E+00  0.00000000E+00  0.00000000E+00
IOpCl                                      I                0
IROHF                                      I                0
Alpha Orbital Energies                     R   N=         224
 -1.91556060E+01 -1.02422559E+01 -1.02308582E+01 -1.01855950E+01 -1.01838924E+01
 -1.01816252E+01 -1.01779471E+01 -1.01735329E+01 -1.07454274E+00 -8.43908126E-01
 -7.60392649E-01 -7.46435569E-01 -6.97672242E-01 -6.15869458E-01 -5.90657166E-01
 -5.38835417E-01 -4.90170394E-01 -4.82487623E-01 -4.77038467E-01 -4.53261556E-01
 -4.31684222E-01 -4.17946754E-01 -3.81562356E-01 -3.72651554E-01 -3.61467987E-01
 -3.33098986E-01 -3.25567483E-01 -2.56203574E-01 -2.23291549E-01 -2.41852377E-02
 -3.61448292E-03  3.90396784E-04  1.45944748E-02  2.27286133E-02  3.46044447E-02
  3.89391826E-02  4.45264437E-02  4.99794420E-02  6.90441904E-02  7.19373851E-02
  7.57423815E-02  8.88242220E-02  9.03775304E-02  1.08054554E-01  1.15075004E-01
  1.24297458E-01  1.29492367E-01  1.29840486E-01  1.42574350E-01  1.49173053E-01
  1.50922360E-01  1.51137259E-01  1.54753080E-01  1.72281124E-01  1.77172553E-01
  1.81507921E-01  1.96437984E-01  2.03224760E-01  2.04346904E-01  2.09223885E-01
  2.10193645E-01  2.18255110E-01  2.25420863E-01  2.32728522E-01  2.40529780E-01
  2.43276189E-01  2.53003170E-01  2.60187734E-01  2.72213673E-01  2.73980933E-01
  2.82576420E-01  3.02204105E-01  3.12823194E-01  3.30564002E-01  3.41590901E-01
  3.51612860E-01  3.73121937E-01  3.86354385E-01  4.23875111E-01  4.40413392E-01
  4.75754019E-01  4.94335585E-01  5.25119599E-01  5.29175038E-01  5.33776834E-01
  5.38088564E-01  5.43569006E-01  5.77504361E-01  5.78337221E-01  5.93238871E-01
  6.03691124E-01  6.21702310E-01  6.25149316E-01  6.30444654E-01  6.45081279E-01
  6.61186362E-01  6.76436840E-01  6.87267328E-01  7.00134910E-01  7.18548185E-01
  7.30626603E-01  7.43694842E-01  7.70645457E-01  7.93027817E-01  8.25238552E-01
  8.34095691E-01  8.38286181E-01  8.44967931E-01  8.52024447E-01  8.67124167E-01
  8.97299796E-01  9.45234168E-01  9.84123004E-01  9.89345705E-01  9.99315671E-01
  1.00471834E+00  1.01619329E+00  1.02736389E+00  1.06615442E+00  1.07061383E+00
  1.09317864E+00  1.11842234E+00  1.14335501E+00  1.26907985E+00  1.29157378E+00
  1.29335433E+00  1.35159414E+00  1.42399525E+00  1.42848860E+00  1.43748765E+00
  1.48416155E+00  1.50276696E+00  1.52075296E+00  1.54842882E+00  1.55805049E+00
  1.55999018E+00  1.56564463E+00  1.58703487E+00  1.62073335E+00  1.64902631E+00
  1.67626784E+00  1.69036512E+00  1.69170662E+00  1.70237188E+00  1.74594517E+00
  1.75975952E+00  1.77362552E+00  1.78663038E+00  1.82786738E+00  1.87519937E+00