 Entering Gaussian System, Link 0=g09
 Initial command:
 /apps/Gausian/g09/l1.exe /local/tm162.157906/scratch/Gau-11466.inp -scrdir=/local/tm162.157906/scratch/
 Entering Link 1 = /apps/Gausian/g09/l1.exe PID=     11467.
  
 Copyright (c) 1988,1990,1992,1993,1995,1998,2003,2009,2011,
            Gaussian, Inc.  All Rights Reserved.
  
 This is part of the Gaussian(R) 09 program.  It is based on
 the Gaussian(R) 03 system (copyright 2003, Gaussian, Inc.),
 the Gaussian(R) 98 system (copyright 1998, Gaussian, Inc.),
 the Gaussian(R) 94 system (copyright 1995, Gaussian, Inc.),
 the Gaussian 92(TM) system (copyright 1992, Gaussian, Inc.),
 the Gaussian 90(TM) system (copyright 1990, Gaussian, Inc.),
 the Gaussian 88(TM) system (copyright 1988, Gaussian, Inc.),
 the Gaussian 86(TM) system (copyright 1986, Carnegie Mellon
 University), and the Gaussian 82(TM) system (copyright 1983,
 Carnegie Mellon University). Gaussian is a federally registered
 trademark of Gaussian, Inc.
  
 This software contains proprietary and confidential information,
 including trade secrets, belonging to Gaussian, Inc.
  
 This software is provided under written license and may be
 used, copied, transmitted, or stored only in accord with that
 written license.
  
 The following legend is applicable only to US Government
 contracts under FAR:
  
                    RESTRICTED RIGHTS LEGEND
  
 Use, reproduction and disclosure by the US Government is
 subject to restrictions as set forth in subparagraphs (a)
 and (c) of the Commercial Computer Software - Restricted
 Rights clause in FAR 52.227-19.
  
 Gaussian, Inc.
 340 Quinnipiac St., Bldg. 40, Wallingford CT 06492
  
  
 ---------------------------------------------------------------
 Warning -- This program may not be used in any manner that
 competes with the business of Gaussian, Inc. or will provide
 assistance to any competitor of Gaussian, Inc.  The licensee
 of this program is prohibited from giving any competitor of
 Gaussian, Inc. access to this program.  By using this program,
 the user acknowledges that Gaussian, Inc. is engaged in the
 business of creating and licensing software in the field of
 computational chemistry and represents and warrants to the
 licensee that it is not a competitor of Gaussian, Inc. and that
 it will not use this program in any manner prohibited above.
 ---------------------------------------------------------------
  

 Cite this work as:
 Gaussian 09, Revision C.01,
 M. J. Frisch, G. W. Trucks, H. B. Schlegel, G. E. Scuseria, 
 M. A. Robb, J. R. Cheeseman, G. Scalmani, V. Barone, B. Mennucci, 
 G. A. Petersson, H. Nakatsuji, M. Caricato, X. Li, H. P. Hratchian, 
 A. F. Izmaylov, J. Bloino, G. Zheng, J. L. Sonnenberg, M. Hada, 
 M. Ehara, K. Toyota, R. Fukuda, J. Hasegawa, M. Ishida, T. Nakajima, 
 Y. Honda, O. Kitao, H. Nakai, T. Vreven, J. A. Montgomery, Jr., 
 J. E. Peralta, F. Ogliaro, M. Bearpark, J. J. Heyd, E. Brothers, 
 K. N. Kudin, V. N. Staroverov, T. Keith, R. Kobayashi, J. Normand, 
 K. Raghavachari, A. Rendell, J. C. Burant, S. S. Iyengar, J. Tomasi, 
 M. Cossi, N. Rega, J. M. Millam, M. Klene, J. E. Knox, J. B. Cross, 
 V. Bakken, C. Adamo, J. Jaramillo, R. Gomperts, R. E. Stratmann, 
 O. Yazyev, A. J. Austin, R. Cammi, C. Pomelli, J. W. Ochterski, 
 R. L. Martin, K. Morokuma, V. G. Zakrzewski, G. A. Voth, 
 P. Salvador, J. J. Dannenberg, S. Dapprich, A. D. Daniels, 
 O. Farkas, J. B. Foresman, J. V. Ortiz, J. Cioslowski, 
 and D. J. Fox, Gaussian, Inc., Wallingford CT, 2010.
 
 ******************************************
 Gaussian 09:  EM64L-G09RevC.01 23-Sep-2011
                10-Sep-2015 
 ******************************************
 %rwf=/local/tm162.157906/S1.rwf
 %nosave
 %chk=/local/tm162.157906/anisole.chk
 %nproc=2
 Will use up to    2 processors via shared memory.
 %mem=1Gb
 ----------------------------------------------------------------------
 #P TD(Singlets NStates=2 Root=1) Opt(tight MaxCycles=150) IOP(1/33=1) 
 NoSymm B3LYP/6-311+G(d,p) Formcheck Freq
 ----------------------------------------------------------------------
 1/6=150,7=10,14=-1,18=20,19=15,26=3,33=1,38=1/1,3;
 2/9=110,12=2,15=1,17=6,18=5,40=1/2;
 3/5=4,6=6,7=111,11=2,16=1,25=1,30=1,71=1,74=-5/1,2,8,3;
 4//1;
 5/5=2,38=5/2;
 8/6=1,10=2,107=1,108=2/1;
 9/8=1,15=2,41=2,42=1,48=1/14;
 10/5=4,31=1/2;
 6/7=2,8=2,9=2,10=2/1;
 7/12=6,13=5,14=1,30=1/1,2,3,16;
 1/6=150,7=10,14=-1,18=20,19=15,33=1/3(2);
 2/9=110,15=1/2;
 99//99;
 2/9=110,15=1/2;
 3/5=4,6=6,7=111,11=2,16=1,25=1,30=1,71=1,74=-5/1,2,8,3;
 4/5=5,16=3/1;
 5/5=2,38=5/2;
 8/6=1,10=2,107=1,108=2/1;
 9/8=1,15=2,41=2,42=1,48=1,49=4/14;
 10/5=4,31=1/2;
 7/12=6,13=5,14=1,30=1/1,2,3,16;
 1/6=150,7=10,14=-1,18=20,19=15,33=1/3(-8);
 2/9=110,15=1/2;
 6/7=2,8=2,9=2,10=2/1;
 99//99;
 Leave Link    1 at Thu Sep 10 00:23:21 2015, MaxMem=  134217728 cpu:       0.1
 (Enter /apps/Gausian/g09/l101.exe)
 ONIOM data not found on unit 2.
 ------
 anisol
 ------
 Charge =  0 Multiplicity = 1
 Symbolic Z-Matrix:
 6                     1.39855  -0.0009   -0.0001 
 1                     2.4893   -0.01801  -0.00022 
 6                    -1.39354   0.03697   0.0002 
 1                    -2.47949   0.06905   0.00028 
 6                     0.71946   1.21876  -0.00005 
 1                     1.27429   2.1561   -0.00015 
 6                     0.69662  -1.19316   0. 
 1                     1.20993  -2.15405  -0.00003 
 6                    -0.66841   1.22635   0.00009 
 1                    -1.20694   2.17486   0.00011 
 6                    -0.71084  -1.18537   0.00017 
 8                    -1.30083  -2.45505   0.00031 
 6                    -2.74983  -2.40748   0.00042 
 1                    -3.08678  -3.45294  -0.00013 
 1                    -3.14773  -1.90458   0.89616 
 1                    -3.14783  -1.90359  -0.89472 
 
 RdStrC is calling ZToCFu for IStruc=1 NZ=    16.
 PrtBox:  NBox=     4 Levels=  2 BoxLen=    8.00 SMaxX=       10.65
          Shift=            5.948535            6.525109            1.690770
 Box      1 Number                   0 centers from      1 to      9:
 Box      2 Number                   2 centers from     10 to     12:
 Box      3 Number                   4 centers from     13 to     15:
 Box      4 Number                   6 centers from     16 to     16:
 ITRead=  0  0  0  0  0  0  0  0  0  0  0  0  0  0  0  0
 MicOpt= -1 -1 -1 -1 -1 -1 -1 -1 -1 -1 -1 -1 -1 -1 -1 -1
 NAtoms=     16 NQM=        0 NQMF=       0 NMMI=     16 NMMIF=      0
                NMic=       0 NMicF=      0.
                    Isotopes and Nuclear Properties:
 (Nuclear quadrupole moments (NQMom) in fm**2, nuclear magnetic moments (NMagM)
  in nuclear magnetons)

  Atom         1           2           3           4           5           6           7           8           9          10
 IAtWgt=          12           1          12           1          12           1          12           1          12           1
 AtmWgt=  12.0000000   1.0078250  12.0000000   1.0078250  12.0000000   1.0078250  12.0000000   1.0078250  12.0000000   1.0078250
 NucSpn=           0           1           0           1           0           1           0           1           0           1
 AtZEff=   0.0000000   0.0000000   0.0000000   0.0000000   0.0000000   0.0000000   0.0000000   0.0000000   0.0000000   0.0000000
 NQMom=    0.0000000   0.0000000   0.0000000   0.0000000   0.0000000   0.0000000   0.0000000   0.0000000   0.0000000   0.0000000
 NMagM=    0.0000000   2.7928460   0.0000000   2.7928460   0.0000000   2.7928460   0.0000000   2.7928460   0.0000000   2.7928460

  Atom        11          12          13          14          15          16
 IAtWgt=          12          16          12           1           1           1
 AtmWgt=  12.0000000  15.9949146  12.0000000   1.0078250   1.0078250   1.0078250
 NucSpn=           0           0           0           1           1           1
 AtZEff=   0.0000000   0.0000000   0.0000000   0.0000000   0.0000000   0.0000000
 NQMom=    0.0000000   0.0000000   0.0000000   0.0000000   0.0000000   0.0000000
 NMagM=    0.0000000   0.0000000   0.0000000   2.7928460   2.7928460   2.7928460
 No MM parameters found.
 Leave Link  101 at Thu Sep 10 00:23:22 2015, MaxMem=  134217728 cpu:       0.1
 (Enter /apps/Gausian/g09/l103.exe)

 GradGradGradGradGradGradGradGradGradGradGradGradGradGradGradGradGradGrad
 Berny optimization.
 Initialization pass.
                           ----------------------------
                           !    Initial Parameters    !
                           ! (Angstroms and Degrees)  !
 --------------------------                            --------------------------
 ! Name  Definition              Value          Derivative Info.                !
 --------------------------------------------------------------------------------
 ! R1    R(1,2)                  1.0909         estimate D2E/DX2                !
 ! R2    R(1,5)                  1.396          estimate D2E/DX2                !
 ! R3    R(1,7)                  1.3835         estimate D2E/DX2                !
 ! R4    R(3,4)                  1.0864         estimate D2E/DX2                !
 ! R5    R(3,9)                  1.393          estimate D2E/DX2                !
 ! R6    R(3,11)                 1.4001         estimate D2E/DX2                !
 ! R7    R(5,6)                  1.0892         estimate D2E/DX2                !
 ! R8    R(5,9)                  1.3879         estimate D2E/DX2                !
 ! R9    R(7,8)                  1.0894         estimate D2E/DX2                !
 ! R10   R(7,11)                 1.4075         estimate D2E/DX2                !
 ! R11   R(9,10)                 1.0907         estimate D2E/DX2                !
 ! R12   R(11,12)                1.4001         estimate D2E/DX2                !
 ! R13   R(12,13)                1.4498         estimate D2E/DX2                !
 ! R14   R(13,14)                1.0984         estimate D2E/DX2                !
 ! R15   R(13,15)                1.1016         estimate D2E/DX2                !
 ! R16   R(13,16)                1.1016         estimate D2E/DX2                !
 ! A1    A(2,1,5)              120.007          estimate D2E/DX2                !
 ! A2    A(2,1,7)              119.5881         estimate D2E/DX2                !
 ! A3    A(5,1,7)              120.4049         estimate D2E/DX2                !
 ! A4    A(4,3,9)              119.6774         estimate D2E/DX2                !
 ! A5    A(4,3,11)             120.8766         estimate D2E/DX2                !
 ! A6    A(9,3,11)             119.446          estimate D2E/DX2                !
 ! A7    A(1,5,6)              120.2697         estimate D2E/DX2                !
 ! A8    A(1,5,9)              119.4214         estimate D2E/DX2                !
 ! A9    A(6,5,9)              120.3089         estimate D2E/DX2                !
 ! A10   A(1,7,8)              121.4022         estimate D2E/DX2                !
 ! A11   A(1,7,11)             120.1697         estimate D2E/DX2                !
 ! A12   A(8,7,11)             118.4281         estimate D2E/DX2                !
 ! A13   A(3,9,5)              121.0564         estimate D2E/DX2                !
 ! A14   A(3,9,10)             119.0438         estimate D2E/DX2                !
 ! A15   A(5,9,10)             119.8998         estimate D2E/DX2                !
 ! A16   A(3,11,7)             119.5015         estimate D2E/DX2                !
 ! A17   A(3,11,12)            125.8924         estimate D2E/DX2                !
 ! A18   A(7,11,12)            114.6061         estimate D2E/DX2                !
 ! A19   A(11,12,13)           113.0431         estimate D2E/DX2                !
 ! A20   A(12,13,14)           105.9841         estimate D2E/DX2                !
 ! A21   A(12,13,15)           112.0889         estimate D2E/DX2                !
 ! A22   A(12,13,16)           112.0883         estimate D2E/DX2                !
 ! A23   A(14,13,15)           108.9112         estimate D2E/DX2                !
 ! A24   A(14,13,16)           108.9121         estimate D2E/DX2                !
 ! A25   A(15,13,16)           108.7469         estimate D2E/DX2                !
 ! D1    D(2,1,5,6)              0.0003         estimate D2E/DX2                !
 ! D2    D(2,1,5,9)            179.9996         estimate D2E/DX2                !
 ! D3    D(7,1,5,6)           -179.9994         estimate D2E/DX2                !
 ! D4    D(7,1,5,9)             -0.0001         estimate D2E/DX2                !
 ! D5    D(2,1,7,8)              0.0006         estimate D2E/DX2                !
 ! D6    D(2,1,7,11)           179.9995         estimate D2E/DX2                !
 ! D7    D(5,1,7,8)           -179.9997         estimate D2E/DX2                !
 ! D8    D(5,1,7,11)            -0.0007         estimate D2E/DX2                !
 ! D9    D(4,3,9,5)           -179.9978         estimate D2E/DX2                !
 ! D10   D(4,3,9,10)             0.0013         estimate D2E/DX2                !
 ! D11   D(11,3,9,5)             0.0006         estimate D2E/DX2                !
 ! D12   D(11,3,9,10)          179.9997         estimate D2E/DX2                !
 ! D13   D(4,3,11,7)           179.9969         estimate D2E/DX2                !
 ! D14   D(4,3,11,12)           -0.0038         estimate D2E/DX2                !
 ! D15   D(9,3,11,7)            -0.0014         estimate D2E/DX2                !
 ! D16   D(9,3,11,12)          179.9978         estimate D2E/DX2                !
 ! D17   D(1,5,9,3)              0.0002         estimate D2E/DX2                !
 ! D18   D(1,5,9,10)          -179.9989         estimate D2E/DX2                !
 ! D19   D(6,5,9,3)            179.9994         estimate D2E/DX2                !
 ! D20   D(6,5,9,10)             0.0004         estimate D2E/DX2                !
 ! D21   D(1,7,11,3)             0.0015         estimate D2E/DX2                !
 ! D22   D(1,7,11,12)         -179.9978         estimate D2E/DX2                !
 ! D23   D(8,7,11,3)          -179.9995         estimate D2E/DX2                !
 ! D24   D(8,7,11,12)            0.0011         estimate D2E/DX2                !
 ! D25   D(3,11,12,13)           0.0031         estimate D2E/DX2                !
 ! D26   D(7,11,12,13)        -179.9976         estimate D2E/DX2                !
 ! D27   D(11,12,13,14)        179.9645         estimate D2E/DX2                !
 ! D28   D(11,12,13,15)        -61.3441         estimate D2E/DX2                !
 ! D29   D(11,12,13,16)         61.2724         estimate D2E/DX2                !
 --------------------------------------------------------------------------------
 Maximum allowed force set to 1.00D+20.
 Trust Radius=3.00D-01 FncErr=1.00D-07 GrdErr=1.00D-06
 Number of steps in this run=    100 maximum allowed number of steps=    100.
 GradGradGradGradGradGradGradGradGradGradGradGradGradGradGradGradGradGrad

 Leave Link  103 at Thu Sep 10 00:23:22 2015, MaxMem=  134217728 cpu:       0.0
 (Enter /apps/Gausian/g09/l202.exe)
                          Input orientation:                          
 ---------------------------------------------------------------------
 Center     Atomic      Atomic             Coordinates (Angstroms)
 Number     Number       Type             X           Y           Z
 ---------------------------------------------------------------------
      1          6           0        1.398549   -0.000897   -0.000099
      2          1           0        2.489304   -0.018007   -0.000220
      3          6           0       -1.393543    0.036967    0.000198
      4          1           0       -2.479487    0.069049    0.000275
      5          6           0        0.719464    1.218764   -0.000054
      6          1           0        1.274289    2.156097   -0.000145
      7          6           0        0.696622   -1.193160    0.000003
      8          1           0        1.209926   -2.154049   -0.000025
      9          6           0       -0.668407    1.226350    0.000092
     10          1           0       -1.206944    2.174863    0.000110
     11          6           0       -0.710839   -1.185370    0.000169
     12          8           0       -1.300830   -2.455048    0.000307
     13          6           0       -2.749826   -2.407483    0.000420
     14          1           0       -3.086778   -3.452939   -0.000132
     15          1           0       -3.147732   -1.904583    0.896159
     16          1           0       -3.147829   -1.903589   -0.894717
 ---------------------------------------------------------------------
                    Distance matrix (angstroms):
                    1          2          3          4          5
     1  C    0.000000
     2  H    1.090889   0.000000
     3  C    2.792349   3.883236   0.000000
     4  H    3.878667   4.969554   1.086418   0.000000
     5  C    1.395969   2.159152   2.421042   3.399284   0.000000
     6  H    2.160570   2.490580   3.407057   4.294951   1.089231
     7  C    1.383543   2.143524   2.425284   3.417724   2.412032
     8  H    2.161398   2.489876   3.402734   4.307428   3.408287
     9  C    2.403839   3.394048   1.393002   2.149269   1.387892
    10  H    3.394485   4.297782   2.146024   2.460451   2.150622
    11  C    2.419193   3.406413   1.400069   2.168336   2.797432
    12  O    3.648219   4.506028   2.493739   2.785731   4.192670
    13  C    4.795902   5.758305   2.795503   2.491243   5.018530
    14  H    5.659925   6.549156   3.878980   3.573962   6.025968
    15  H    5.009588   6.011559   2.765780   2.268123   5.051109
    16  H    5.009005   6.011058   2.764806   2.266935   5.050294
                    6          7          8          9         10
     6  H    0.000000
     7  C    3.398709   0.000000
     8  H    4.310627   1.089398   0.000000
     9  C    2.153717   2.778009   3.867200   0.000000
    10  H    2.481304   3.868739   4.957897   1.090733   0.000000
    11  C    3.886661   1.407483   2.151204   2.412093   3.396658
    12  O    5.281467   2.362663   2.528734   3.735325   4.630863
    13  C    6.084387   3.654119   3.967854   4.187726   4.835119
    14  H    7.104941   4.406894   4.488739   5.267282   5.933459
    15  H    6.070153   4.011019   4.455846   4.093010   4.605588
    16  H    6.069303   4.010616   4.455697   4.092033   4.604511
                   11         12         13         14         15
    11  C    0.000000
    12  O    1.400061   0.000000
    13  C    2.377189   1.449776   0.000000
    14  H    3.284350   2.045824   1.098415   0.000000
    15  H    2.694163   2.125232   1.101629   1.790100   0.000000
    16  H    2.693618   2.125225   1.101629   1.790110   1.790876
                   16
    16  H    0.000000
 Symmetry turned off by external request.
 Stoichiometry    C7H8O
 Framework group  C1[X(C7H8O)]
 Deg. of freedom    42
 Full point group                 C1      NOp   1
 Rotational constants (GHZ):      4.9693578      1.5671386      1.2005623
 Leave Link  202 at Thu Sep 10 00:23:22 2015, MaxMem=  134217728 cpu:       0.0
 (Enter /apps/Gausian/g09/l301.exe)
 Standard basis: 6-311+G(d,p) (5D, 7F)
 Ernie: Thresh=  0.10000D-02 Tol=  0.10000D-05 Strict=F.
 Integral buffers will be    131072 words long.
 Raffenetti 2 integral format.
 Two-electron integral symmetry is turned off.
   224 basis functions,   352 primitive gaussians,   232 cartesian basis functions
    29 alpha electrons       29 beta electrons
       nuclear repulsion energy       344.3974269656 Hartrees.
 IExCor=  402 DFT=T Ex+Corr=B3LYP ExCW=0 ScaHFX=  0.200000
 ScaDFX=  0.800000  0.720000  1.000000  0.810000 ScalE2=  1.000000  1.000000
 IRadAn=      0 IRanWt=     -1 IRanGd=            0 ICorTp=0
 NAtoms=   16 NActive=   16 NUniq=   16 SFac= 1.00D+00 NAtFMM=   60 NAOKFM=F Big=F
 Leave Link  301 at Thu Sep 10 00:23:22 2015, MaxMem=  134217728 cpu:       0.1
 (Enter /apps/Gausian/g09/l302.exe)
 NPDir=0 NMtPBC=     1 NCelOv=     1 NCel=       1 NClECP=     1 NCelD=      1
         NCelK=      1 NCelE2=     1 NClLst=     1 CellRange=     0.0.
 One-electron integrals computed using PRISM.
 NBasis=   224 RedAO= T  NBF=   224
 NBsUse=   224 1.00D-06 NBFU=   224
 Precomputing XC quadrature grid using
 IXCGrd= 2 IRadAn=           0 IRanWt=          -1 IRanGd=           0 AccXCQ= 0.00D+00.
 NRdTot=    1031 NPtTot=      131318 NUsed=      138756 NTot=      138788
 NSgBfM=   232   232   232   232   232 NAtAll=    16    16.
 Leave Link  302 at Thu Sep 10 00:23:22 2015, MaxMem=  134217728 cpu:       0.5
 (Enter /apps/Gausian/g09/l308.exe)
 Leave Link  308 at Thu Sep 10 00:23:22 2015, MaxMem=  134217728 cpu:       0.1
 (Enter /apps/Gausian/g09/l303.exe)
 DipDrv:  MaxL=1.
 Leave Link  303 at Thu Sep 10 00:23:22 2015, MaxMem=  134217728 cpu:       0.1
 (Enter /apps/Gausian/g09/l401.exe)
 Harris functional with IExCor=  402 diagonalized for initial guess.
 ExpMin= 4.38D-02 ExpMax= 8.59D+03 ExpMxC= 1.30D+03 IAcc=2 IRadAn=         4 AccDes= 0.00D+00
 HarFok:  IExCor=  402 AccDes= 0.00D+00 IRadAn=         4 IDoV= 1
 ScaDFX=  1.000000  1.000000  1.000000  1.000000
 FoFCou: FMM=F IPFlag=           0 FMFlag=      100000 FMFlg1=           0
         NFxFlg=           0 DoJE=T BraDBF=F KetDBF=T FulRan=T
         Omega=  0.000000  0.000000  1.000000  0.000000  0.000000 ICntrl=     500 IOpCl=  0
         NMat0=    1 NMatS0=    1 NMatT0=    0 NMatD0=    1 NMtDS0=    0 NMtDT0=    0
         I1Cent=           4 NGrid=           0.
 Symmetry not used in FoFCou.
 Harris En= -346.880111186218    
 Leave Link  401 at Thu Sep 10 00:23:24 2015, MaxMem=  134217728 cpu:       3.4
 (Enter /apps/Gausian/g09/l502.exe)
 Closed shell SCF:
 Requested convergence on RMS density matrix=1.00D-08 within 128 cycles.
 Requested convergence on MAX density matrix=1.00D-06.
 Requested convergence on             energy=1.00D-06.
 No special actions if energy rises.
 Using DIIS extrapolation, IDIIS=  1040.
 Two-electron integral symmetry not used.
       138599 words used for storage of precomputed grid.
 IEnd=      321033 IEndB=      321033 NGot=   134217728 MDV=   133967392
 LenX=   133967392 LenY=   133913127
 Fock matrices will be formed incrementally for  20 cycles.

 Cycle   1  Pass 1  IDiag  1:
 FoFCou: FMM=F IPFlag=           0 FMFlag=      100000 FMFlg1=           0
         NFxFlg=           0 DoJE=F BraDBF=F KetDBF=F FulRan=T
         Omega=  0.000000  0.000000  1.000000  0.000000  0.000000 ICntrl=       0 IOpCl=  0
         NMat0=    1 NMatS0=    1 NMatT0=    0 NMatD0=    1 NMtDS0=    0 NMtDT0=    0
         I1Cent=           0 NGrid=           0.
 Symmetry not used in FoFCou.
 E= -346.674710763525    
 DIIS: error= 3.43D-02 at cycle   1 NSaved=   1.
 NSaved= 1 IEnMin= 1 EnMin= -346.674710763525     IErMin= 1 ErrMin= 3.43D-02
 ErrMax= 3.43D-02 EMaxC= 1.00D-01 BMatC= 1.96D-01 BMatP= 1.96D-01
 IDIUse=3 WtCom= 6.57D-01 WtEn= 3.43D-01
 Coeff-Com:  0.100D+01
 Coeff-En:   0.100D+01
 Coeff:      0.100D+01
 Gap=     0.247 Goal=   None    Shift=    0.000
 GapD=    0.247 DampG=1.000 DampE=0.500 DampFc=0.5000 IDamp=-1.
 Damping current iteration by 5.00D-01
 RMSDP=8.62D-03 MaxDP=4.41D-01              OVMax= 2.22D-01

 Cycle   2  Pass 1  IDiag  1:
 RMSU=  3.04D-03    CP:  1.01D+00
 E= -346.756186925785     Delta-E=       -0.081476162260 Rises=F Damp=T
 DIIS: error= 5.37D-03 at cycle   2 NSaved=   2.
 NSaved= 2 IEnMin= 2 EnMin= -346.756186925785     IErMin= 2 ErrMin= 5.37D-03
 ErrMax= 5.37D-03 EMaxC= 1.00D-01 BMatC= 1.27D-02 BMatP= 1.96D-01
 IDIUse=3 WtCom= 9.46D-01 WtEn= 5.37D-02
 Coeff-Com:  0.406D-01 0.959D+00
 Coeff-En:   0.129D+00 0.871D+00
 Coeff:      0.454D-01 0.955D+00
 Gap=     0.242 Goal=   None    Shift=    0.000
 RMSDP=1.97D-03 MaxDP=7.95D-02 DE=-8.15D-02 OVMax= 1.61D-01

 Cycle   3  Pass 1  IDiag  1:
 RMSU=  1.37D-03    CP:  1.00D+00  9.35D-01
 E= -346.854914923900     Delta-E=       -0.098727998114 Rises=F Damp=F
 DIIS: error= 9.72D-03 at cycle   3 NSaved=   3.
 NSaved= 3 IEnMin= 3 EnMin= -346.854914923900     IErMin= 2 ErrMin= 5.37D-03
 ErrMax= 9.72D-03 EMaxC= 1.00D-01 BMatC= 9.49D-03 BMatP= 1.27D-02
 IDIUse=3 WtCom= 9.03D-01 WtEn= 9.72D-02
 Coeff-Com: -0.400D-01 0.464D+00 0.576D+00
 Coeff-En:   0.000D+00 0.000D+00 0.100D+01
 Coeff:     -0.361D-01 0.419D+00 0.617D+00
 Gap=     0.221 Goal=   None    Shift=    0.000
 RMSDP=1.64D-03 MaxDP=1.68D-01 DE=-9.87D-02 OVMax= 7.36D-02

 Cycle   4  Pass 1  IDiag  1:
 RMSU=  7.60D-04    CP:  9.56D-01  8.47D-01  7.40D-01
 E= -346.860299383188     Delta-E=       -0.005384459288 Rises=F Damp=F
 DIIS: error= 6.37D-03 at cycle   4 NSaved=   4.
 NSaved= 4 IEnMin= 4 EnMin= -346.860299383188     IErMin= 2 ErrMin= 5.37D-03
 ErrMax= 6.37D-03 EMaxC= 1.00D-01 BMatC= 4.35D-03 BMatP= 9.49D-03
 IDIUse=3 WtCom= 9.36D-01 WtEn= 6.37D-02
 Coeff-Com: -0.318D-01 0.155D+00 0.422D+00 0.455D+00
 Coeff-En:   0.000D+00 0.000D+00 0.345D+00 0.655D+00
 Coeff:     -0.298D-01 0.145D+00 0.417D+00 0.467D+00
 Gap=     0.215 Goal=   None    Shift=    0.000
 RMSDP=6.02D-04 MaxDP=1.79D-02 DE=-5.38D-03 OVMax= 3.17D-02

 Cycle   5  Pass 1  IDiag  1:
 RMSU=  2.80D-04    CP:  9.60D-01  9.24D-01  7.63D-01  7.31D-01
 E= -346.864876096088     Delta-E=       -0.004576712901 Rises=F Damp=F
 DIIS: error= 7.89D-04 at cycle   5 NSaved=   5.
 NSaved= 5 IEnMin= 5 EnMin= -346.864876096088     IErMin= 5 ErrMin= 7.89D-04
 ErrMax= 7.89D-04 EMaxC= 1.00D-01 BMatC= 8.39D-05 BMatP= 4.35D-03
 IDIUse=3 WtCom= 9.92D-01 WtEn= 7.89D-03
 Coeff-Com: -0.892D-02 0.253D-01 0.119D+00 0.196D+00 0.669D+00
 Coeff-En:   0.000D+00 0.000D+00 0.000D+00 0.000D+00 0.100D+01
 Coeff:     -0.885D-02 0.251D-01 0.118D+00 0.194D+00 0.672D+00
 Gap=     0.214 Goal=   None    Shift=    0.000
 RMSDP=1.06D-04 MaxDP=4.77D-03 DE=-4.58D-03 OVMax= 2.98D-03

 Cycle   6  Pass 1  IDiag  1:
 RMSU=  4.22D-05    CP:  9.59D-01  9.09D-01  7.73D-01  7.50D-01  8.79D-01
 E= -346.864945349437     Delta-E=       -0.000069253349 Rises=F Damp=F
 DIIS: error= 2.28D-04 at cycle   6 NSaved=   6.
 NSaved= 6 IEnMin= 6 EnMin= -346.864945349437     IErMin= 6 ErrMin= 2.28D-04
 ErrMax= 2.28D-04 EMaxC= 1.00D-01 BMatC= 1.08D-05 BMatP= 8.39D-05
 IDIUse=3 WtCom= 9.98D-01 WtEn= 2.28D-03
 Coeff-Com: -0.331D-02 0.538D-02 0.435D-01 0.843D-01 0.374D+00 0.496D+00
 Coeff-En:   0.000D+00 0.000D+00 0.000D+00 0.000D+00 0.000D+00 0.100D+01
 Coeff:     -0.330D-02 0.536D-02 0.434D-01 0.841D-01 0.373D+00 0.497D+00
 Gap=     0.215 Goal=   None    Shift=    0.000
 RMSDP=4.48D-05 MaxDP=2.47D-03 DE=-6.93D-05 OVMax= 1.05D-03

 Cycle   7  Pass 1  IDiag  1:
 RMSU=  1.30D-05    CP:  9.60D-01  9.14D-01  7.77D-01  7.44D-01  8.58D-01
                    CP:  5.58D-01
 E= -346.864954496948     Delta-E=       -0.000009147510 Rises=F Damp=F
 DIIS: error= 8.47D-05 at cycle   7 NSaved=   7.
 NSaved= 7 IEnMin= 7 EnMin= -346.864954496948     IErMin= 7 ErrMin= 8.47D-05
 ErrMax= 8.47D-05 EMaxC= 1.00D-01 BMatC= 4.78D-07 BMatP= 1.08D-05
 IDIUse=1 WtCom= 1.00D+00 WtEn= 0.00D+00
 Coeff-Com: -0.832D-03 0.570D-03 0.124D-01 0.262D-01 0.133D+00 0.240D+00
 Coeff-Com:  0.589D+00
 Coeff:     -0.832D-03 0.570D-03 0.124D-01 0.262D-01 0.133D+00 0.240D+00
 Coeff:      0.589D+00
 Gap=     0.215 Goal=   None    Shift=    0.000
 RMSDP=1.19D-05 MaxDP=8.30D-04 DE=-9.15D-06 OVMax= 3.97D-04

 Cycle   8  Pass 1  IDiag  1:
 RMSU=  4.29D-06    CP:  9.60D-01  9.13D-01  7.76D-01  7.47D-01  8.61D-01
                    CP:  6.25D-01  7.23D-01
 E= -346.864954854968     Delta-E=       -0.000000358020 Rises=F Damp=F
 DIIS: error= 3.81D-05 at cycle   8 NSaved=   8.
 NSaved= 8 IEnMin= 8 EnMin= -346.864954854968     IErMin= 8 ErrMin= 3.81D-05
 ErrMax= 3.81D-05 EMaxC= 1.00D-01 BMatC= 1.38D-07 BMatP= 4.78D-07
 IDIUse=1 WtCom= 1.00D+00 WtEn= 0.00D+00
 Coeff-Com:  0.625D-04-0.583D-03 0.447D-03 0.204D-02 0.206D-01 0.669D-01
 Coeff-Com:  0.384D+00 0.526D+00
 Coeff:      0.625D-04-0.583D-03 0.447D-03 0.204D-02 0.206D-01 0.669D-01
 Coeff:      0.384D+00 0.526D+00
 Gap=     0.215 Goal=   None    Shift=    0.000
 RMSDP=3.75D-06 MaxDP=1.67D-04 DE=-3.58D-07 OVMax= 1.54D-04

 Cycle   9  Pass 1  IDiag  1:
 RMSU=  1.83D-06    CP:  9.60D-01  9.13D-01  7.77D-01  7.46D-01  8.62D-01
                    CP:  6.18D-01  7.61D-01  8.12D-01
 E= -346.864955000720     Delta-E=       -0.000000145753 Rises=F Damp=F
 DIIS: error= 2.89D-06 at cycle   9 NSaved=   9.
 NSaved= 9 IEnMin= 9 EnMin= -346.864955000720     IErMin= 9 ErrMin= 2.89D-06
 ErrMax= 2.89D-06 EMaxC= 1.00D-01 BMatC= 1.96D-09 BMatP= 1.38D-07
 IDIUse=1 WtCom= 1.00D+00 WtEn= 0.00D+00
 Coeff-Com:  0.608D-04-0.198D-03-0.421D-03-0.593D-03 0.525D-03 0.977D-02
 Coeff-Com:  0.101D+00 0.178D+00 0.712D+00
 Coeff:      0.608D-04-0.198D-03-0.421D-03-0.593D-03 0.525D-03 0.977D-02
 Coeff:      0.101D+00 0.178D+00 0.712D+00
 Gap=     0.215 Goal=   None    Shift=    0.000
 RMSDP=4.81D-07 MaxDP=2.23D-05 DE=-1.46D-07 OVMax= 1.79D-05

 Cycle  10  Pass 1  IDiag  1:
 RMSU=  2.51D-07    CP:  9.60D-01  9.13D-01  7.77D-01  7.46D-01  8.62D-01
                    CP:  6.19D-01  7.71D-01  8.15D-01  9.38D-01
 E= -346.864955002083     Delta-E=       -0.000000001363 Rises=F Damp=F
 DIIS: error= 2.20D-06 at cycle  10 NSaved=  10.
 NSaved=10 IEnMin=10 EnMin= -346.864955002083     IErMin=10 ErrMin= 2.20D-06
 ErrMax= 2.20D-06 EMaxC= 1.00D-01 BMatC= 6.17D-10 BMatP= 1.96D-09
 IDIUse=1 WtCom= 1.00D+00 WtEn= 0.00D+00
 Coeff-Com:  0.287D-04-0.722D-04-0.261D-03-0.466D-03-0.111D-02 0.365D-03
 Coeff-Com:  0.250D-01 0.560D-01 0.404D+00 0.517D+00
 Coeff:      0.287D-04-0.722D-04-0.261D-03-0.466D-03-0.111D-02 0.365D-03
 Coeff:      0.250D-01 0.560D-01 0.404D+00 0.517D+00
 Gap=     0.215 Goal=   None    Shift=    0.000
 RMSDP=1.88D-07 MaxDP=1.16D-05 DE=-1.36D-09 OVMax= 6.88D-06

 Cycle  11  Pass 1  IDiag  1:
 RMSU=  8.92D-08    CP:  9.60D-01  9.13D-01  7.77D-01  7.46D-01  8.62D-01
                    CP:  6.19D-01  7.72D-01  8.17D-01  9.34D-01  8.00D-01
 E= -346.864955002673     Delta-E=       -0.000000000589 Rises=F Damp=F
 DIIS: error= 3.11D-07 at cycle  11 NSaved=  11.
 NSaved=11 IEnMin=11 EnMin= -346.864955002673     IErMin=11 ErrMin= 3.11D-07
 ErrMax= 3.11D-07 EMaxC= 1.00D-01 BMatC= 1.20D-11 BMatP= 6.17D-10
 IDIUse=1 WtCom= 1.00D+00 WtEn= 0.00D+00
 Coeff-Com:  0.243D-05-0.179D-05-0.325D-04-0.891D-04-0.371D-03-0.780D-03
 Coeff-Com: -0.318D-02-0.916D-03 0.482D-01 0.136D+00 0.821D+00
 Coeff:      0.243D-05-0.179D-05-0.325D-04-0.891D-04-0.371D-03-0.780D-03
 Coeff:     -0.318D-02-0.916D-03 0.482D-01 0.136D+00 0.821D+00
 Gap=     0.215 Goal=   None    Shift=    0.000
 RMSDP=6.70D-08 MaxDP=3.56D-06 DE=-5.89D-10 OVMax= 2.11D-06

 Cycle  12  Pass 1  IDiag  1:
 RMSU=  2.45D-08    CP:  9.60D-01  9.13D-01  7.77D-01  7.46D-01  8.62D-01
                    CP:  6.19D-01  7.72D-01  8.19D-01  9.46D-01  8.06D-01
                    CP:  8.91D-01
 E= -346.864955002684     Delta-E=       -0.000000000011 Rises=F Damp=F
 DIIS: error= 2.80D-07 at cycle  12 NSaved=  12.
 NSaved=12 IEnMin=12 EnMin= -346.864955002684     IErMin=12 ErrMin= 2.80D-07
 ErrMax= 2.80D-07 EMaxC= 1.00D-01 BMatC= 3.84D-12 BMatP= 1.20D-11
 IDIUse=1 WtCom= 1.00D+00 WtEn= 0.00D+00
 Coeff-Com:  0.334D-06 0.142D-05-0.564D-05-0.286D-04-0.136D-03-0.365D-03
 Coeff-Com: -0.243D-02-0.244D-02 0.117D-01 0.558D-01 0.463D+00 0.474D+00
 Coeff:      0.334D-06 0.142D-05-0.564D-05-0.286D-04-0.136D-03-0.365D-03
 Coeff:     -0.243D-02-0.244D-02 0.117D-01 0.558D-01 0.463D+00 0.474D+00
 Gap=     0.215 Goal=   None    Shift=    0.000
 RMSDP=1.87D-08 MaxDP=1.06D-06 DE=-1.09D-11 OVMax= 8.96D-07

 Cycle  13  Pass 1  IDiag  1:
 RMSU=  7.11D-09    CP:  9.60D-01  9.13D-01  7.77D-01  7.46D-01  8.62D-01
                    CP:  6.19D-01  7.72D-01  8.20D-01  9.48D-01  8.13D-01
                    CP:  9.24D-01  7.48D-01
 E= -346.864955002688     Delta-E=       -0.000000000005 Rises=F Damp=F
 DIIS: error= 4.66D-08 at cycle  13 NSaved=  13.
 NSaved=13 IEnMin=13 EnMin= -346.864955002688     IErMin=13 ErrMin= 4.66D-08
 ErrMax= 4.66D-08 EMaxC= 1.00D-01 BMatC= 3.50D-13 BMatP= 3.84D-12
 IDIUse=1 WtCom= 1.00D+00 WtEn= 0.00D+00
 Coeff-Com: -0.235D-06 0.720D-06 0.361D-05 0.377D-05 0.392D-05-0.138D-04
 Coeff-Com: -0.456D-03-0.111D-02-0.521D-02-0.599D-02 0.577D-02 0.231D+00
 Coeff-Com:  0.776D+00
 Coeff:     -0.235D-06 0.720D-06 0.361D-05 0.377D-05 0.392D-05-0.138D-04
 Coeff:     -0.456D-03-0.111D-02-0.521D-02-0.599D-02 0.577D-02 0.231D+00
 Coeff:      0.776D+00
 Gap=     0.215 Goal=   None    Shift=    0.000
 RMSDP=6.91D-09 MaxDP=4.32D-07 DE=-4.77D-12 OVMax= 2.35D-07

 SCF Done:  E(RB3LYP) =  -346.864955003     A.U. after   13 cycles
             Convg  =    0.6910D-08             -V/T =  2.0048
 KE= 3.452160484274D+02 PE=-1.496081298195D+03 EE= 4.596028677995D+02
 Leave Link  502 at Thu Sep 10 00:24:34 2015, MaxMem=  134217728 cpu:     140.8
 (Enter /apps/Gausian/g09/l801.exe)
 ExpMin= 4.38D-02 ExpMax= 8.59D+03 ExpMxC= 1.30D+03 IAcc=3 IRadAn=         5 AccDes= 0.00D+00
 HarFok:  IExCor=  205 AccDes= 0.00D+00 IRadAn=         5 IDoV=-2
 ScaDFX=  1.000000  1.000000  1.000000  1.000000
 Largest valence mixing into a core orbital is  5.78D-05
 Largest core mixing into a valence orbital is  1.49D-05
 Range of M.O.s used for correlation:     9   224
 NBasis=   224 NAE=    29 NBE=    29 NFC=     8 NFV=     0
 NROrb=    216 NOA=    21 NOB=    21 NVA=   195 NVB=   195

 **** Warning!!: The largest alpha MO coefficient is  0.19401812D+03

 Leave Link  801 at Thu Sep 10 00:24:35 2015, MaxMem=  134217728 cpu:       0.6
 (Enter /apps/Gausian/g09/l914.exe)
 RHF ground state
 MDV=   134217728 DFT=T DoStab=F Mixed=T DoRPA=T DoScal=F NonHer=T
 Would need an additional   974200000 words for in-memory AO integral storage.
 Making orbital integer symmetry assigments:
     8 initial guesses have been made.
 Convergence on wavefunction:    0.000001000000000
 Davidson Disk Diagonalization:  ConvIn= 1.00D-06 SkipCon=T Conv= 1.00D-06.
 Max sub-space:   200 roots to seek:     8 dimension of matrix:   8190
 Iteration     1 Dimension     8 NMult     8
 CISAX:  IP=  1 NPass=   1 NMax=     8.
 CISAX will form     8 AO SS matrices at one time.
 NMat=     8 NSing=     8.
 Symmetry not used in FoFDir.
 MinBra= 0 MaxBra= 2 Meth= 1.
 IRaf=       0 NMat=   8 IRICut=       1 DoRegI=T DoRafI=F ISym2E= 0 JSym2E=0.
 CISAX:  IP=  1 NPass=   1 NMax=     8.
 CISAX will form     8 AO SS matrices at one time.
 NMat=     8 NSing=     8.
 No map to state      2
 Excitation Energies [eV] at current iteration:
 Root      1 :     5.228719089271457
 Root      2 :     5.557961020418121
 Iteration     2 Dimension    12 NMult    12
 CISAX:  IP=  1 NPass=   1 NMax=     4.
 CISAX will form     4 AO SS matrices at one time.
 NMat=     4 NSing=     4.
 CISAX:  IP=  1 NPass=   1 NMax=     4.
 CISAX will form     4 AO SS matrices at one time.
 NMat=     4 NSing=     4.
 Root      1 not converged, maximum delta is    0.039776122114956
 Root      2 not converged, maximum delta is    0.027604888098209
 Excitation Energies [eV] at current iteration:
 Root      1 :     5.093353422206913   Change is   -0.135365667064543
 Root      2 :     5.536428083954802   Change is   -0.021532936463319
 Iteration     3 Dimension    16 NMult    16
 CISAX:  IP=  1 NPass=   1 NMax=     4.
 CISAX will form     4 AO SS matrices at one time.
 NMat=     4 NSing=     4.
 CISAX:  IP=  1 NPass=   1 NMax=     4.
 CISAX will form     4 AO SS matrices at one time.
 NMat=     4 NSing=     4.
 Root      1 not converged, maximum delta is    0.021621276856671
 Root      2 not converged, maximum delta is    0.004045999444808
 Excitation Energies [eV] at current iteration:
 Root      1 :     5.069205694739253   Change is   -0.024147727467660
 Root      2 :     5.535993409503503   Change is   -0.000434674451298
 Iteration     4 Dimension    20 NMult    20
 CISAX:  IP=  1 NPass=   1 NMax=     4.
 CISAX will form     4 AO SS matrices at one time.
 NMat=     4 NSing=     4.
 CISAX:  IP=  1 NPass=   1 NMax=     4.
 CISAX will form     4 AO SS matrices at one time.
 NMat=     4 NSing=     4.
 Root      1 not converged, maximum delta is    0.003344575089020
 Root      2 not converged, maximum delta is    0.001136722119220
 Excitation Energies [eV] at current iteration:
 Root      1 :     5.067226787810243   Change is   -0.001978906929011
 Root      2 :     5.535928847881146   Change is   -0.000064561622358
 Iteration     5 Dimension    24 NMult    24
 CISAX:  IP=  1 NPass=   1 NMax=     4.
 CISAX will form     4 AO SS matrices at one time.
 NMat=     4 NSing=     4.
 CISAX:  IP=  1 NPass=   1 NMax=     4.
 CISAX will form     4 AO SS matrices at one time.
 NMat=     4 NSing=     4.
 Root      1 not converged, maximum delta is    0.001439231432784
 Root      2 not converged, maximum delta is    0.000301315984751
 Excitation Energies [eV] at current iteration:
 Root      1 :     5.066886225536496   Change is   -0.000340562273746
 Root      2 :     5.535919943257778   Change is   -0.000008904623368
 Iteration     6 Dimension    28 NMult    28
 CISAX:  IP=  1 NPass=   1 NMax=     4.
 CISAX will form     4 AO SS matrices at one time.
 NMat=     4 NSing=     4.
 CISAX:  IP=  1 NPass=   1 NMax=     4.
 CISAX will form     4 AO SS matrices at one time.
 NMat=     4 NSing=     4.
 Root      1 not converged, maximum delta is    0.000654329664569
 Root      2 not converged, maximum delta is    0.000092216253700
 Excitation Energies [eV] at current iteration:
 Root      1 :     5.066851398370901   Change is   -0.000034827165596
 Root      2 :     5.535919009697031   Change is   -0.000000933560747
 Iteration     7 Dimension    32 NMult    32
 CISAX:  IP=  1 NPass=   1 NMax=     4.
 CISAX will form     4 AO SS matrices at one time.
 NMat=     4 NSing=     4.
 CISAX:  IP=  1 NPass=   1 NMax=     4.
 CISAX will form     4 AO SS matrices at one time.
 NMat=     4 NSing=     4.
 Root      1 not converged, maximum delta is    0.000175425226341
 Root      2 not converged, maximum delta is    0.000022812885089
 Excitation Energies [eV] at current iteration:
 Root      1 :     5.066847917343330   Change is   -0.000003481027571
 Root      2 :     5.535918855566607   Change is   -0.000000154130423
 Iteration     8 Dimension    36 NMult    36
 CISAX:  IP=  1 NPass=   1 NMax=     4.
 CISAX will form     4 AO SS matrices at one time.
 NMat=     4 NSing=     4.
 CISAX:  IP=  1 NPass=   1 NMax=     4.
 CISAX will form     4 AO SS matrices at one time.
 NMat=     4 NSing=     4.
 Root      1 not converged, maximum delta is    0.000041552558560
 Root      2 not converged, maximum delta is    0.000013952763275
 Excitation Energies [eV] at current iteration:
 Root      1 :     5.066847349203632   Change is   -0.000000568139698
 Root      2 :     5.535918825758499   Change is   -0.000000029808108
 Iteration     9 Dimension    40 NMult    40
 CISAX:  IP=  1 NPass=   1 NMax=     4.
 CISAX will form     4 AO SS matrices at one time.
 NMat=     4 NSing=     4.
 CISAX:  IP=  1 NPass=   1 NMax=     4.
 CISAX will form     4 AO SS matrices at one time.
 NMat=     4 NSing=     4.
 Root      1 not converged, maximum delta is    0.000017551284694
 Root      2 not converged, maximum delta is    0.000006552270200
 Excitation Energies [eV] at current iteration:
 Root      1 :     5.066847298375025   Change is   -0.000000050828607
 Root      2 :     5.535918821249098   Change is   -0.000000004509402
 Iteration    10 Dimension    44 NMult    44
 CISAX:  IP=  1 NPass=   1 NMax=     4.
 CISAX will form     4 AO SS matrices at one time.
 NMat=     4 NSing=     4.
 CISAX:  IP=  1 NPass=   1 NMax=     4.
 CISAX will form     4 AO SS matrices at one time.
 NMat=     4 NSing=     4.
 Root      1 not converged, maximum delta is    0.000003557488052
 Root      2 not converged, maximum delta is    0.000002438851542
 Excitation Energies [eV] at current iteration:
 Root      1 :     5.066847294117244   Change is   -0.000000004257782
 Root      2 :     5.535918820160521   Change is   -0.000000001088576
 Iteration    11 Dimension    48 NMult    48
 CISAX:  IP=  1 NPass=   1 NMax=     4.
 CISAX will form     4 AO SS matrices at one time.
 NMat=     4 NSing=     4.
 CISAX:  IP=  1 NPass=   1 NMax=     4.
 CISAX will form     4 AO SS matrices at one time.
 NMat=     4 NSing=     4.
 Root      1 not converged, maximum delta is    0.000001027490324
 Root      2 has converged.
 Excitation Energies [eV] at current iteration:
 Root      1 :     5.066847293756600   Change is   -0.000000000360643
 Root      2 :     5.535918820044549   Change is   -0.000000000115973
 Iteration    12 Dimension    50 NMult    50
 CISAX:  IP=  1 NPass=   1 NMax=     2.
 CISAX will form     2 AO SS matrices at one time.
 NMat=     2 NSing=     2.
 CISAX:  IP=  1 NPass=   1 NMax=     2.
 CISAX will form     2 AO SS matrices at one time.
 NMat=     2 NSing=     2.
 Root      1 has converged.
 Root      2 has converged.
 Excitation Energies [eV] at current iteration:
 Root      1 :     5.066847293710656   Change is   -0.000000000045945
 Root      2 :     5.535918820043458   Change is   -0.000000000001091
 Convergence achieved on expansion vectors.
 ***********************************************************************
 Excited states from <AA,BB:AA,BB> singles matrix:
 ***********************************************************************
 
 1PDM for each excited state written to RWF  633
 Ground to excited state transition densities written to RWF  633
 Ground to excited state transition electric dipole moments (Au):
       state          X           Y           Z        Dip. S.      Osc.
         1         0.4182     -0.2463      0.0000      0.2355      0.0292
         2         0.0001      0.0000     -0.1008      0.0102      0.0014
 Ground to excited state transition velocity dipole moments (Au):
       state          X           Y           Z        Dip. S.      Osc.
         1        -0.0821      0.0479      0.0000      0.0090      0.0324
         2         0.0000      0.0000      0.0217      0.0005      0.0015
 Ground to excited state transition magnetic dipole moments (Au):
       state          X           Y           Z
         1         0.0000      0.0000      0.3859
         2        -0.3469      0.2897      0.0000
 Ground to excited state transition velocity quadrupole moments (Au):
       state          XX          YY          ZZ          XY          XZ          YZ
         1         0.0271     -0.0142      0.0232     -0.0042      0.0000      0.0000
         2         0.0000     -0.0001      0.0001      0.0000     -0.2953     -0.2442
 <0|del|b> * <b|rxdel|0> + <0|del|b> * <b|delr+rdel|0>
 Rotatory Strengths (R) in cgs (10**-40 erg-esu-cm/Gauss)
       state          XX          YY          ZZ    R(velocity)
         1        -0.0005     -0.0034      0.0017     -0.0007
         2        -0.0060      0.0172      0.0028      0.0047
 1/2[<0|r|b>*<b|rxdel|0> + (<0|rxdel|b>*<b|r|0>)*]
 Rotatory Strengths (R) in cgs (10**-40 erg-esu-cm/Gauss)
       state          XX          YY          ZZ     R(length)
         1        -0.0039     -0.0032      0.0060     -0.0004
         2         0.0162     -0.0058      0.0009      0.0038
  1/2[<0|del|b>*<b|r|0> + (<0|r|b>*<b|del|0>)*] (Au)
       state          X           Y           Z        Dip. S.   Osc.(frdel)
         1        -0.0343     -0.0118      0.0000      0.0461      0.0308
         2         0.0000      0.0000     -0.0022      0.0022      0.0015

 Excitation energies and oscillator strengths:
 
 Excited state symmetry could not be determined.
 Excited State   1:      Singlet-?Sym    5.0668 eV  244.70 nm  f=0.0292  <S**2>=0.000
      28 -> 31         0.29819
      29 -> 30         0.62289
      29 -> 31         0.10984
 This state for optimization and/or second-order correction.
 Total Energy, E(TD-HF/TD-KS) =  -346.678751783    
 Copying the excited state density for this state as the 1-particle RhoCI density.
 
 Excited state symmetry could not be determined.
 Excited State   2:      Singlet-?Sym    5.5359 eV  223.96 nm  f=0.0014  <S**2>=0.000
      29 -> 32         0.69951
 SavETr:  write IOETrn=   770 NScale= 10 NData=  16 NLR=1 LETran=      46.
 The selected state is a singlet
 CISAX:  IP=  1 NPass=   1 NMax=     1.
 CISAX will form     1 AO SS matrices at one time.
 NMat=     1 NSing=     1.
 CISAX:  IP=  1 NPass=   1 NMax=     1.
 CISAX will form     1 AO SS matrices at one time.
 NMat=     1 NSing=     1.
 Leave Link  914 at Thu Sep 10 00:32:39 2015, MaxMem=  134217728 cpu:     967.6
 (Enter /apps/Gausian/g09/l1002.exe)
 Minotr:  Closed shell wavefunction.
          Computing CIS/TD-HF/TD-KS derivatives.
          Using Z-Vector for PSCF gradient.
          Skipping F1 and S1 gradient terms here.
          IDoAtm=1111111111111111
          Frozen-core window.
          Direct CPHF calculation.
          Differentiating once with respect to electric field.
                with respect to dipole field.
          Differentiating once with respect to nuclear coordinates.
          Requested convergence is 1.0D-10 RMS, and 1.0D-09 maximum.
          NewPWx=F KeepS1=T KeepF1=T KeepIn=T MapXYZ=F SortEE=F KeepMc=T.
          MDV=     134217564 using IRadAn=       0.
 Generate precomputed XC quadrature information.
          Solving linear equations separately, MaxMat=       0.
          There are     1 degrees of freedom in the 1st order CPHF.  IDoFFX=0.
 Symmetry not used in FoFDir.
 MinBra= 0 MaxBra= 2 Meth= 1.
 IRaf=       0 NMat=   1 IRICut=       1 DoRegI=T DoRafI=F ISym2E= 0 JSym2E=0.
 LinEq1:  Iter=  0 NonCon=     1 RMS=8.67D-03 Max=2.58D-01
 AX will form     1 AO Fock derivatives at one time.
 LinEq1:  Iter=  1 NonCon=     1 RMS=3.32D-03 Max=7.62D-02
 LinEq1:  Iter=  2 NonCon=     1 RMS=2.65D-03 Max=8.90D-02
 LinEq1:  Iter=  3 NonCon=     1 RMS=1.07D-03 Max=2.24D-02
 LinEq1:  Iter=  4 NonCon=     1 RMS=8.08D-04 Max=2.11D-02
 LinEq1:  Iter=  5 NonCon=     1 RMS=2.86D-04 Max=2.89D-03
 LinEq1:  Iter=  6 NonCon=     1 RMS=1.53D-04 Max=2.49D-03
 LinEq1:  Iter=  7 NonCon=     1 RMS=4.43D-05 Max=1.22D-03
 LinEq1:  Iter=  8 NonCon=     1 RMS=2.72D-05 Max=9.16D-04
 LinEq1:  Iter=  9 NonCon=     1 RMS=1.30D-05 Max=3.97D-04
 LinEq1:  Iter= 10 NonCon=     1 RMS=9.40D-06 Max=3.48D-04
 LinEq1:  Iter= 11 NonCon=     1 RMS=3.28D-06 Max=9.03D-05
 LinEq1:  Iter= 12 NonCon=     1 RMS=1.40D-06 Max=3.70D-05
 LinEq1:  Iter= 13 NonCon=     1 RMS=7.32D-07 Max=1.11D-05
 LinEq1:  Iter= 14 NonCon=     1 RMS=1.97D-07 Max=2.65D-06
 LinEq1:  Iter= 15 NonCon=     1 RMS=7.74D-08 Max=1.65D-06
 LinEq1:  Iter= 16 NonCon=     1 RMS=3.89D-08 Max=5.24D-07
 LinEq1:  Iter= 17 NonCon=     1 RMS=8.19D-09 Max=1.54D-07
 LinEq1:  Iter= 18 NonCon=     1 RMS=1.39D-09 Max=2.42D-08
 LinEq1:  Iter= 19 NonCon=     1 RMS=1.69D-10 Max=3.11D-09
 LinEq1:  Iter= 20 NonCon=     0 RMS=3.50D-11 Max=6.39D-10
 Linear equations converged to 1.000D-10 1.000D-09 after    20 iterations.
 End of Minotr Frequency-dependent properties file   721 does not exist.
 End of Minotr Frequency-dependent properties file   722 does not exist.
 Leave Link 1002 at Thu Sep 10 00:35:04 2015, MaxMem=  134217728 cpu:     290.5
 (Enter /apps/Gausian/g09/l601.exe)
 Copying SCF densities to generalized density rwf, IOpCl= 0 IROHF=0.

 **********************************************************************

            Population analysis using the SCF density.

 **********************************************************************

 Alpha  occ. eigenvalues --  -19.16001 -10.23917 -10.23006 -10.18079 -10.17940
 Alpha  occ. eigenvalues --  -10.17894 -10.17431 -10.17208  -1.05787  -0.85830
 Alpha  occ. eigenvalues --   -0.75853  -0.75154  -0.69923  -0.61392  -0.59695
 Alpha  occ. eigenvalues --   -0.53956  -0.48735  -0.48163  -0.46804  -0.45209
 Alpha  occ. eigenvalues --   -0.42922  -0.41571  -0.38342  -0.37437  -0.36445
 Alpha  occ. eigenvalues --   -0.33905  -0.32737  -0.26200  -0.23177
 Alpha virt. eigenvalues --   -0.01725  -0.00537  -0.00051   0.01312   0.02194
 Alpha virt. eigenvalues --    0.03343   0.03860   0.04514   0.05016   0.06916
 Alpha virt. eigenvalues --    0.07308   0.07431   0.08800   0.09133   0.10898
 Alpha virt. eigenvalues --    0.11651   0.12703   0.13115   0.13165   0.13968
 Alpha virt. eigenvalues --    0.14513   0.14772   0.15256   0.15720   0.17450
 Alpha virt. eigenvalues --    0.17583   0.18287   0.19460   0.20229   0.20461
 Alpha virt. eigenvalues --    0.20791   0.21260   0.21781   0.22440   0.22828
 Alpha virt. eigenvalues --    0.24084   0.24307   0.25185   0.26101   0.27194
 Alpha virt. eigenvalues --    0.27366   0.28242   0.31340   0.32284   0.33159
 Alpha virt. eigenvalues --    0.34748   0.35861   0.37296   0.38813   0.42321
 Alpha virt. eigenvalues --    0.44452   0.47558   0.51122   0.52798   0.53135
 Alpha virt. eigenvalues --    0.53425   0.53579   0.54277   0.57140   0.57645
 Alpha virt. eigenvalues --    0.59002   0.60269   0.62070   0.62175   0.63058
 Alpha virt. eigenvalues --    0.64611   0.66674   0.67969   0.69285   0.70114
 Alpha virt. eigenvalues --    0.72288   0.73554   0.74643   0.76741   0.79129
 Alpha virt. eigenvalues --    0.82686   0.83481   0.84481   0.85536   0.86107
 Alpha virt. eigenvalues --    0.87205   0.90495   0.94004   0.97380   0.98871
 Alpha virt. eigenvalues --    1.00803   1.01437   1.01876   1.02548   1.07788
 Alpha virt. eigenvalues --    1.08894   1.09316   1.12647   1.14827   1.26849
 Alpha virt. eigenvalues --    1.27629   1.27980   1.33828   1.40110   1.42845
 Alpha virt. eigenvalues --    1.45303   1.49067   1.51592   1.52744   1.54661
 Alpha virt. eigenvalues --    1.56683   1.56766   1.56982   1.60671   1.63011
 Alpha virt. eigenvalues --    1.64518   1.67419   1.67477   1.69517   1.72684
 Alpha virt. eigenvalues --    1.73383   1.76989   1.77731   1.79893   1.83264
 Alpha virt. eigenvalues --    1.88312   1.91083   1.92967   1.94608   1.95198
 Alpha virt. eigenvalues --    1.96194   1.97316   2.00442   2.03627   2.04643
 Alpha virt. eigenvalues --    2.07334   2.08007   2.10700   2.16593   2.26541
 Alpha virt. eigenvalues --    2.29604   2.33706   2.37560   2.39018   2.40054
 Alpha virt. eigenvalues --    2.41145   2.45500   2.47018   2.49890   2.53215
 Alpha virt. eigenvalues --    2.61542   2.63987   2.64203   2.66486   2.70408
 Alpha virt. eigenvalues --    2.71810   2.73297   2.75959   2.76051   2.76896
 Alpha virt. eigenvalues --    2.78752   2.79934   2.81564   2.86448   2.87055
 Alpha virt. eigenvalues --    2.88814   2.92732   3.04858   3.05580   3.07652
 Alpha virt. eigenvalues --    3.09185   3.15721   3.19177   3.30015   3.35918
 Alpha virt. eigenvalues --    3.39683   3.48797   3.50661   3.60082   3.65638
 Alpha virt. eigenvalues --    3.74120   3.80256   3.97705   4.02347   4.06025
 Alpha virt. eigenvalues --    4.12552   4.14534   4.19196   4.84453   5.01119
 Alpha virt. eigenvalues --    5.39316   5.69047  23.57732  23.88302  23.92144
 Alpha virt. eigenvalues --   23.94682  24.06181  24.10636  24.19861  49.94385
          Condensed to atoms (all electrons):
              1          2          3          4          5          6
     1  C    5.174621   0.396044  -0.113364   0.011504   0.488277   0.009075
     2  H    0.396044   0.542568   0.012274   0.000074   0.005193  -0.007907
     3  C   -0.113364   0.012274   7.292161   0.413407   0.067953  -0.016653
     4  H    0.011504   0.000074   0.413407   0.545034  -0.010733  -0.000279
     5  C    0.488277   0.005193   0.067953  -0.010733   4.965023   0.371707
     6  H    0.009075  -0.007907  -0.016653  -0.000279   0.371707   0.543557
     7  C   -0.208802  -0.078259  -1.666631  -0.067182   0.068532  -0.037436
     8  H   -0.003780  -0.007867  -0.010851  -0.000139  -0.005387  -0.000227
     9  C    0.179414  -0.013426   0.226881   0.016539   0.513722  -0.000518
    10  H   -0.001200  -0.000306   0.009492  -0.008057  -0.010710  -0.008012
    11  C    0.202166   0.024639  -0.628455  -0.010343  -0.375466   0.023886
    12  O    0.029501  -0.000829   0.101076  -0.016521  -0.010542   0.000223
    13  C   -0.002323   0.000624  -0.191129   0.005702  -0.003915   0.000352
    14  H    0.000539  -0.000001  -0.014968   0.000464  -0.000478   0.000000
    15  H    0.000714   0.000000   0.027191  -0.000847   0.000766   0.000001
    16  H    0.000712   0.000000   0.027130  -0.000850   0.000756   0.000001
              7          8          9         10         11         12
     1  C   -0.208802  -0.003780   0.179414  -0.001200   0.202166   0.029501
     2  H   -0.078259  -0.007867  -0.013426  -0.000306   0.024639  -0.000829
     3  C   -1.666631  -0.010851   0.226881   0.009492  -0.628455   0.101076
     4  H   -0.067182  -0.000139   0.016539  -0.008057  -0.010343  -0.016521
     5  C    0.068532  -0.005387   0.513722  -0.010710  -0.375466  -0.010542
     6  H   -0.037436  -0.000227  -0.000518  -0.008012   0.023886   0.000223
     7  C    9.102319   0.330080  -0.313145  -0.015758  -0.392617  -0.558358
     8  H    0.330080   0.528587  -0.007375   0.000063   0.055009  -0.007541
     9  C   -0.313145  -0.007375   5.955030   0.348254  -0.493155   0.064801
    10  H   -0.015758   0.000063   0.348254   0.544288   0.013893  -0.000380
    11  C   -0.392617   0.055009  -0.493155   0.013893   7.507404   0.355312
    12  O   -0.558358  -0.007541   0.064801  -0.000380   0.355312   8.190775
    13  C    0.032263   0.002196  -0.117377   0.002429   0.071454   0.155440
    14  H    0.005736  -0.000063   0.000381  -0.000003   0.034668  -0.059208
    15  H   -0.004053   0.000057   0.006279   0.000028  -0.043451  -0.028266
    16  H   -0.004037   0.000057   0.006180   0.000028  -0.043323  -0.028242
             13         14         15         16
     1  C   -0.002323   0.000539   0.000714   0.000712
     2  H    0.000624  -0.000001   0.000000   0.000000
     3  C   -0.191129  -0.014968   0.027191   0.027130
     4  H    0.005702   0.000464  -0.000847  -0.000850
     5  C   -0.003915  -0.000478   0.000766   0.000756
     6  H    0.000352   0.000000   0.000001   0.000001
     7  C    0.032263   0.005736  -0.004053  -0.004037
     8  H    0.002196  -0.000063   0.000057   0.000057
     9  C   -0.117377   0.000381   0.006279   0.006180
    10  H    0.002429  -0.000003   0.000028   0.000028
    11  C    0.071454   0.034668  -0.043451  -0.043323
    12  O    0.155440  -0.059208  -0.028266  -0.028242
    13  C    5.083967   0.405164   0.407450   0.407447
    14  H    0.405164   0.520326  -0.025727  -0.025720
    15  H    0.407450  -0.025727   0.566428  -0.053293
    16  H    0.407447  -0.025720  -0.053293   0.566490
 Mulliken atomic charges:
              1
     1  C   -0.163099
     2  H    0.127177
     3  C    0.464487
     4  H    0.122228
     5  C   -0.064695
     6  H    0.122231
     7  C   -0.192652
     8  H    0.127181
     9  C   -0.372484
    10  H    0.125952
    11  C   -0.301621
    12  O   -0.187240
    13  C   -0.259746
    14  H    0.158891
    15  H    0.146725
    16  H    0.146664
 Sum of Mulliken atomic charges =   0.00000
 Mulliken charges with hydrogens summed into heavy atoms:
              1
     1  C   -0.035922
     3  C    0.586716
     5  C    0.057535
     7  C   -0.065470
     9  C   -0.246532
    11  C   -0.301621
    12  O   -0.187240
    13  C    0.192534
 Sum of Mulliken charges with hydrogens summed into heavy atoms =   0.00000
 Electronic spatial extent (au):  <R**2>=           1148.3322
 Charge=              0.0000 electrons
 Dipole moment (field-independent basis, Debye):
    X=             -1.3425    Y=              0.4808    Z=              0.0000  Tot=              1.4260
 Quadrupole moment (field-independent basis, Debye-Ang):
   XX=            -38.1216   YY=            -47.3241   ZZ=            -51.9070
   XY=              2.6280   XZ=             -0.0013   YZ=             -0.0001
 Traceless Quadrupole moment (field-independent basis, Debye-Ang):
   XX=              7.6626   YY=             -1.5398   ZZ=             -6.1228
   XY=              2.6280   XZ=             -0.0013   YZ=             -0.0001
 Octapole moment (field-independent basis, Debye-Ang**2):
  XXX=             62.2348  YYY=             94.6073  ZZZ=             -0.0185  XYY=             20.1292
  XXY=             13.8502  XXZ=             -0.0044  XZZ=             25.7369  YZZ=             28.0027
  YYZ=             -0.0081  XYZ=              0.0013
 Hexadecapole moment (field-independent basis, Debye-Ang**3):
 XXXX=           -646.8691 YYYY=           -744.1458 ZZZZ=            -67.5045 XXXY=           -150.5802
 XXXZ=              0.0354 YYYX=           -175.9983 YYYZ=              0.0453 ZZZX=              0.0441
 ZZZY=              0.0350 XXYY=           -197.3830 XXZZ=           -136.0253 YYZZ=           -144.8473
 XXYZ=              0.0059 YYXZ=              0.0137 ZZXY=            -65.3253
 N-N= 3.443974269656D+02 E-N=-1.496081297482D+03  KE= 3.452160484274D+02
 No NMR shielding tensors so no spin-rotation constants.
 Leave Link  601 at Thu Sep 10 00:35:05 2015, MaxMem=  134217728 cpu:       0.3
 (Enter /apps/Gausian/g09/l701.exe)
 Compute integral first derivatives.
 ... and contract with generalized density number  6.
 Leave Link  701 at Thu Sep 10 00:35:05 2015, MaxMem=  134217728 cpu:       0.3
 (Enter /apps/Gausian/g09/l702.exe)
 L702 exits ... SP integral derivatives will be done elsewhere.
 Leave Link  702 at Thu Sep 10 00:35:05 2015, MaxMem=  134217728 cpu:       0.0
 (Enter /apps/Gausian/g09/l703.exe)
 Compute integral first derivatives, UseDBF=F ICtDFT=           0.
 Integral derivatives from FoFDir, PRISM(SPDF).
 Calling FoFJK, ICntrl=      5127 FMM=F ISym2X=0 I1Cent= 0 IOpClX= 0 NMat=1 NMatS=1 NMatT=0.
 FoFCou: FMM=F IPFlag=           0 FMFlag=      100000 FMFlg1=         800
         NFxFlg=           0 DoJE=F BraDBF=F KetDBF=F FulRan=T
         Omega=  0.000000  0.000000  1.000000  0.000000  0.000000 ICntrl=    5127 IOpCl=  0
         NMat0=    1 NMatS0=    1 NMatT0=    0 NMatD0=    1 NMtDS0=    0 NMtDT0=    0
         I1Cent=           0 NGrid=           0.
 Symmetry not used in FoFCou.
 Leave Link  703 at Thu Sep 10 00:35:23 2015, MaxMem=  134217728 cpu:      37.1
 (Enter /apps/Gausian/g09/l716.exe)
 Dipole        =-9.48467077D-01-1.97667406D-01 8.19186083D-05
 -------------------------------------------------------------------
 Center     Atomic                   Forces (Hartrees/Bohr)
 Number     Number              X              Y              Z
 -------------------------------------------------------------------
      1        6           0.038252275    0.016832191   -0.000004973
      2        1          -0.005485071    0.000462640    0.000000923
      3        6          -0.039023809   -0.014118895    0.000001875
      4        1           0.004512574    0.001220038    0.000002149
      5        6           0.014913119    0.009003352   -0.000002305
      6        1          -0.002020624   -0.003217923    0.000000342
      7        6           0.000570353   -0.044611893    0.000002526
      8        1          -0.002607919    0.003923853    0.000000304
      9        6          -0.015384741    0.036028181    0.000001553
     10        1           0.002433066   -0.004689796    0.000000143
     11        6           0.003948691   -0.031422089    0.000002884
     12        8          -0.009924006    0.044888561   -0.000002652
     13        6          -0.005770204   -0.013959206   -0.000006170
     14        1           0.003576123    0.005442821    0.000003551
     15        1           0.006006119   -0.002885400   -0.003559955
     16        1           0.006004056   -0.002896436    0.003559805
 -------------------------------------------------------------------
 Cartesian Forces:  Max     0.044888561 RMS     0.015079890
 Leave Link  716 at Thu Sep 10 00:35:23 2015, MaxMem=  134217728 cpu:       0.1
 (Enter /apps/Gausian/g09/l103.exe)

 GradGradGradGradGradGradGradGradGradGradGradGradGradGradGradGradGradGrad
 Berny optimization.
 Internal  Forces:  Max     0.034967612 RMS     0.009785326
 Search for a local minimum.
 Step number   1 out of a maximum of  100
 All quantities printed in internal units (Hartrees-Bohrs-Radians)
 RMS Force = .97853D-02 SwitMx=.10000D-02 MixMth= 1
 Mixed Optimization -- RFO/linear search
 Second derivative matrix not updated -- first step.
 The second derivative matrix:
                          R1        R2        R3        R4        R5
           R1           0.34710
           R2           0.00000   0.46295
           R3           0.00000   0.00000   0.48460
           R4           0.00000   0.00000   0.00000   0.35230
           R5           0.00000   0.00000   0.00000   0.00000   0.46800
           R6           0.00000   0.00000   0.00000   0.00000   0.00000
           R7           0.00000   0.00000   0.00000   0.00000   0.00000
           R8           0.00000   0.00000   0.00000   0.00000   0.00000
           R9           0.00000   0.00000   0.00000   0.00000   0.00000
           R10          0.00000   0.00000   0.00000   0.00000   0.00000
           R11          0.00000   0.00000   0.00000   0.00000   0.00000
           R12          0.00000   0.00000   0.00000   0.00000   0.00000
           R13          0.00000   0.00000   0.00000   0.00000   0.00000
           R14          0.00000   0.00000   0.00000   0.00000   0.00000
           R15          0.00000   0.00000   0.00000   0.00000   0.00000
           R16          0.00000   0.00000   0.00000   0.00000   0.00000
           A1           0.00000   0.00000   0.00000   0.00000   0.00000
           A2           0.00000   0.00000   0.00000   0.00000   0.00000
           A3           0.00000   0.00000   0.00000   0.00000   0.00000
           A4           0.00000   0.00000   0.00000   0.00000   0.00000
           A5           0.00000   0.00000   0.00000   0.00000   0.00000
           A6           0.00000   0.00000   0.00000   0.00000   0.00000
           A7           0.00000   0.00000   0.00000   0.00000   0.00000
           A8           0.00000   0.00000   0.00000   0.00000   0.00000
           A9           0.00000   0.00000   0.00000   0.00000   0.00000
           A10          0.00000   0.00000   0.00000   0.00000   0.00000
           A11          0.00000   0.00000   0.00000   0.00000   0.00000
           A12          0.00000   0.00000   0.00000   0.00000   0.00000
           A13          0.00000   0.00000   0.00000   0.00000   0.00000
           A14          0.00000   0.00000   0.00000   0.00000   0.00000
           A15          0.00000   0.00000   0.00000   0.00000   0.00000
           A16          0.00000   0.00000   0.00000   0.00000   0.00000
           A17          0.00000   0.00000   0.00000   0.00000   0.00000
           A18          0.00000   0.00000   0.00000   0.00000   0.00000
           A19          0.00000   0.00000   0.00000   0.00000   0.00000
           A20          0.00000   0.00000   0.00000   0.00000   0.00000
           A21          0.00000   0.00000   0.00000   0.00000   0.00000
           A22          0.00000   0.00000   0.00000   0.00000   0.00000
           A23          0.00000   0.00000   0.00000   0.00000   0.00000
           A24          0.00000   0.00000   0.00000   0.00000   0.00000
           A25          0.00000   0.00000   0.00000   0.00000   0.00000
           D1           0.00000   0.00000   0.00000   0.00000   0.00000
           D2           0.00000   0.00000   0.00000   0.00000   0.00000
           D3           0.00000   0.00000   0.00000   0.00000   0.00000
           D4           0.00000   0.00000   0.00000   0.00000   0.00000
           D5           0.00000   0.00000   0.00000   0.00000   0.00000
           D6           0.00000   0.00000   0.00000   0.00000   0.00000
           D7           0.00000   0.00000   0.00000   0.00000   0.00000
           D8           0.00000   0.00000   0.00000   0.00000   0.00000
           D9           0.00000   0.00000   0.00000   0.00000   0.00000
           D10          0.00000   0.00000   0.00000   0.00000   0.00000
           D11          0.00000   0.00000   0.00000   0.00000   0.00000
           D12          0.00000   0.00000   0.00000   0.00000   0.00000
           D13          0.00000   0.00000   0.00000   0.00000   0.00000
           D14          0.00000   0.00000   0.00000   0.00000   0.00000
           D15          0.00000   0.00000   0.00000   0.00000   0.00000
           D16          0.00000   0.00000   0.00000   0.00000   0.00000
           D17          0.00000   0.00000   0.00000   0.00000   0.00000
           D18          0.00000   0.00000   0.00000   0.00000   0.00000
           D19          0.00000   0.00000   0.00000   0.00000   0.00000
           D20          0.00000   0.00000   0.00000   0.00000   0.00000
           D21          0.00000   0.00000   0.00000   0.00000   0.00000
           D22          0.00000   0.00000   0.00000   0.00000   0.00000
           D23          0.00000   0.00000   0.00000   0.00000   0.00000
           D24          0.00000   0.00000   0.00000   0.00000   0.00000
           D25          0.00000   0.00000   0.00000   0.00000   0.00000
           D26          0.00000   0.00000   0.00000   0.00000   0.00000
           D27          0.00000   0.00000   0.00000   0.00000   0.00000
           D28          0.00000   0.00000   0.00000   0.00000   0.00000
           D29          0.00000   0.00000   0.00000   0.00000   0.00000
                          R6        R7        R8        R9        R10
           R6           0.45609
           R7           0.00000   0.34902
           R8           0.00000   0.00000   0.47687
           R9           0.00000   0.00000   0.00000   0.34882
           R10          0.00000   0.00000   0.00000   0.00000   0.44403
           R11          0.00000   0.00000   0.00000   0.00000   0.00000
           R12          0.00000   0.00000   0.00000   0.00000   0.00000
           R13          0.00000   0.00000   0.00000   0.00000   0.00000
           R14          0.00000   0.00000   0.00000   0.00000   0.00000
           R15          0.00000   0.00000   0.00000   0.00000   0.00000
           R16          0.00000   0.00000   0.00000   0.00000   0.00000
           A1           0.00000   0.00000   0.00000   0.00000   0.00000
           A2           0.00000   0.00000   0.00000   0.00000   0.00000
           A3           0.00000   0.00000   0.00000   0.00000   0.00000
           A4           0.00000   0.00000   0.00000   0.00000   0.00000
           A5           0.00000   0.00000   0.00000   0.00000   0.00000
           A6           0.00000   0.00000   0.00000   0.00000   0.00000
           A7           0.00000   0.00000   0.00000   0.00000   0.00000
           A8           0.00000   0.00000   0.00000   0.00000   0.00000
           A9           0.00000   0.00000   0.00000   0.00000   0.00000
           A10          0.00000   0.00000   0.00000   0.00000   0.00000
           A11          0.00000   0.00000   0.00000   0.00000   0.00000
           A12          0.00000   0.00000   0.00000   0.00000   0.00000
           A13          0.00000   0.00000   0.00000   0.00000   0.00000
           A14          0.00000   0.00000   0.00000   0.00000   0.00000
           A15          0.00000   0.00000   0.00000   0.00000   0.00000
           A16          0.00000   0.00000   0.00000   0.00000   0.00000
           A17          0.00000   0.00000   0.00000   0.00000   0.00000
           A18          0.00000   0.00000   0.00000   0.00000   0.00000
           A19          0.00000   0.00000   0.00000   0.00000   0.00000
           A20          0.00000   0.00000   0.00000   0.00000   0.00000
           A21          0.00000   0.00000   0.00000   0.00000   0.00000
           A22          0.00000   0.00000   0.00000   0.00000   0.00000
           A23          0.00000   0.00000   0.00000   0.00000   0.00000
           A24          0.00000   0.00000   0.00000   0.00000   0.00000
           A25          0.00000   0.00000   0.00000   0.00000   0.00000
           D1           0.00000   0.00000   0.00000   0.00000   0.00000
           D2           0.00000   0.00000   0.00000   0.00000   0.00000
           D3           0.00000   0.00000   0.00000   0.00000   0.00000
           D4           0.00000   0.00000   0.00000   0.00000   0.00000
           D5           0.00000   0.00000   0.00000   0.00000   0.00000
           D6           0.00000   0.00000   0.00000   0.00000   0.00000
           D7           0.00000   0.00000   0.00000   0.00000   0.00000
           D8           0.00000   0.00000   0.00000   0.00000   0.00000
           D9           0.00000   0.00000   0.00000   0.00000   0.00000
           D10          0.00000   0.00000   0.00000   0.00000   0.00000
           D11          0.00000   0.00000   0.00000   0.00000   0.00000
           D12          0.00000   0.00000   0.00000   0.00000   0.00000
           D13          0.00000   0.00000   0.00000   0.00000   0.00000
           D14          0.00000   0.00000   0.00000   0.00000   0.00000
           D15          0.00000   0.00000   0.00000   0.00000   0.00000
           D16          0.00000   0.00000   0.00000   0.00000   0.00000
           D17          0.00000   0.00000   0.00000   0.00000   0.00000
           D18          0.00000   0.00000   0.00000   0.00000   0.00000
           D19          0.00000   0.00000   0.00000   0.00000   0.00000
           D20          0.00000   0.00000   0.00000   0.00000   0.00000
           D21          0.00000   0.00000   0.00000   0.00000   0.00000
           D22          0.00000   0.00000   0.00000   0.00000   0.00000
           D23          0.00000   0.00000   0.00000   0.00000   0.00000
           D24          0.00000   0.00000   0.00000   0.00000   0.00000
           D25          0.00000   0.00000   0.00000   0.00000   0.00000
           D26          0.00000   0.00000   0.00000   0.00000   0.00000
           D27          0.00000   0.00000   0.00000   0.00000   0.00000
           D28          0.00000   0.00000   0.00000   0.00000   0.00000
           D29          0.00000   0.00000   0.00000   0.00000   0.00000
                          R11       R12       R13       R14       R15
           R11          0.34728
           R12          0.00000   0.45610
           R13          0.00000   0.00000   0.38274
           R14          0.00000   0.00000   0.00000   0.33858
           R15          0.00000   0.00000   0.00000   0.00000   0.33503
           R16          0.00000   0.00000   0.00000   0.00000   0.00000
           A1           0.00000   0.00000   0.00000   0.00000   0.00000
           A2           0.00000   0.00000   0.00000   0.00000   0.00000
           A3           0.00000   0.00000   0.00000   0.00000   0.00000
           A4           0.00000   0.00000   0.00000   0.00000   0.00000
           A5           0.00000   0.00000   0.00000   0.00000   0.00000
           A6           0.00000   0.00000   0.00000   0.00000   0.00000
           A7           0.00000   0.00000   0.00000   0.00000   0.00000
           A8           0.00000   0.00000   0.00000   0.00000   0.00000
           A9           0.00000   0.00000   0.00000   0.00000   0.00000
           A10          0.00000   0.00000   0.00000   0.00000   0.00000
           A11          0.00000   0.00000   0.00000   0.00000   0.00000
           A12          0.00000   0.00000   0.00000   0.00000   0.00000
           A13          0.00000   0.00000   0.00000   0.00000   0.00000
           A14          0.00000   0.00000   0.00000   0.00000   0.00000
           A15          0.00000   0.00000   0.00000   0.00000   0.00000
           A16          0.00000   0.00000   0.00000   0.00000   0.00000
           A17          0.00000   0.00000   0.00000   0.00000   0.00000
           A18          0.00000   0.00000   0.00000   0.00000   0.00000
           A19          0.00000   0.00000   0.00000   0.00000   0.00000
           A20          0.00000   0.00000   0.00000   0.00000   0.00000
           A21          0.00000   0.00000   0.00000   0.00000   0.00000
           A22          0.00000   0.00000   0.00000   0.00000   0.00000
           A23          0.00000   0.00000   0.00000   0.00000   0.00000
           A24          0.00000   0.00000   0.00000   0.00000   0.00000
           A25          0.00000   0.00000   0.00000   0.00000   0.00000
           D1           0.00000   0.00000   0.00000   0.00000   0.00000
           D2           0.00000   0.00000   0.00000   0.00000   0.00000
           D3           0.00000   0.00000   0.00000   0.00000   0.00000
           D4           0.00000   0.00000   0.00000   0.00000   0.00000
           D5           0.00000   0.00000   0.00000   0.00000   0.00000
           D6           0.00000   0.00000   0.00000   0.00000   0.00000
           D7           0.00000   0.00000   0.00000   0.00000   0.00000
           D8           0.00000   0.00000   0.00000   0.00000   0.00000
           D9           0.00000   0.00000   0.00000   0.00000   0.00000
           D10          0.00000   0.00000   0.00000   0.00000   0.00000
           D11          0.00000   0.00000   0.00000   0.00000   0.00000
           D12          0.00000   0.00000   0.00000   0.00000   0.00000
           D13          0.00000   0.00000   0.00000   0.00000   0.00000
           D14          0.00000   0.00000   0.00000   0.00000   0.00000
           D15          0.00000   0.00000   0.00000   0.00000   0.00000
           D16          0.00000   0.00000   0.00000   0.00000   0.00000
           D17          0.00000   0.00000   0.00000   0.00000   0.00000
           D18          0.00000   0.00000   0.00000   0.00000   0.00000
           D19          0.00000   0.00000   0.00000   0.00000   0.00000
           D20          0.00000   0.00000   0.00000   0.00000   0.00000
           D21          0.00000   0.00000   0.00000   0.00000   0.00000
           D22          0.00000   0.00000   0.00000   0.00000   0.00000
           D23          0.00000   0.00000   0.00000   0.00000   0.00000
           D24          0.00000   0.00000   0.00000   0.00000   0.00000
           D25          0.00000   0.00000   0.00000   0.00000   0.00000
           D26          0.00000   0.00000   0.00000   0.00000   0.00000
           D27          0.00000   0.00000   0.00000   0.00000   0.00000
           D28          0.00000   0.00000   0.00000   0.00000   0.00000
           D29          0.00000   0.00000   0.00000   0.00000   0.00000
                          R16       A1        A2        A3        A4
           R16          0.33503
           A1           0.00000   0.16000
           A2           0.00000   0.00000   0.16000
           A3           0.00000   0.00000   0.00000   0.25000
           A4           0.00000   0.00000   0.00000   0.00000   0.16000
           A5           0.00000   0.00000   0.00000   0.00000   0.00000
           A6           0.00000   0.00000   0.00000   0.00000   0.00000
           A7           0.00000   0.00000   0.00000   0.00000   0.00000
           A8           0.00000   0.00000   0.00000   0.00000   0.00000
           A9           0.00000   0.00000   0.00000   0.00000   0.00000
           A10          0.00000   0.00000   0.00000   0.00000   0.00000
           A11          0.00000   0.00000   0.00000   0.00000   0.00000
           A12          0.00000   0.00000   0.00000   0.00000   0.00000
           A13          0.00000   0.00000   0.00000   0.00000   0.00000
           A14          0.00000   0.00000   0.00000   0.00000   0.00000
           A15          0.00000   0.00000   0.00000   0.00000   0.00000
           A16          0.00000   0.00000   0.00000   0.00000   0.00000
           A17          0.00000   0.00000   0.00000   0.00000   0.00000
           A18          0.00000   0.00000   0.00000   0.00000   0.00000
           A19          0.00000   0.00000   0.00000   0.00000   0.00000
           A20          0.00000   0.00000   0.00000   0.00000   0.00000
           A21          0.00000   0.00000   0.00000   0.00000   0.00000
           A22          0.00000   0.00000   0.00000   0.00000   0.00000
           A23          0.00000   0.00000   0.00000   0.00000   0.00000
           A24          0.00000   0.00000   0.00000   0.00000   0.00000
           A25          0.00000   0.00000   0.00000   0.00000   0.00000
           D1           0.00000   0.00000   0.00000   0.00000   0.00000
           D2           0.00000   0.00000   0.00000   0.00000   0.00000
           D3           0.00000   0.00000   0.00000   0.00000   0.00000
           D4           0.00000   0.00000   0.00000   0.00000   0.00000
           D5           0.00000   0.00000   0.00000   0.00000   0.00000
           D6           0.00000   0.00000   0.00000   0.00000   0.00000
           D7           0.00000   0.00000   0.00000   0.00000   0.00000
           D8           0.00000   0.00000   0.00000   0.00000   0.00000
           D9           0.00000   0.00000   0.00000   0.00000   0.00000
           D10          0.00000   0.00000   0.00000   0.00000   0.00000
           D11          0.00000   0.00000   0.00000   0.00000   0.00000
           D12          0.00000   0.00000   0.00000   0.00000   0.00000
           D13          0.00000   0.00000   0.00000   0.00000   0.00000
           D14          0.00000   0.00000   0.00000   0.00000   0.00000
           D15          0.00000   0.00000   0.00000   0.00000   0.00000
           D16          0.00000   0.00000   0.00000   0.00000   0.00000
           D17          0.00000   0.00000   0.00000   0.00000   0.00000
           D18          0.00000   0.00000   0.00000   0.00000   0.00000
           D19          0.00000   0.00000   0.00000   0.00000   0.00000
           D20          0.00000   0.00000   0.00000   0.00000   0.00000
           D21          0.00000   0.00000   0.00000   0.00000   0.00000
           D22          0.00000   0.00000   0.00000   0.00000   0.00000
           D23          0.00000   0.00000   0.00000   0.00000   0.00000
           D24          0.00000   0.00000   0.00000   0.00000   0.00000
           D25          0.00000   0.00000   0.00000   0.00000   0.00000
           D26          0.00000   0.00000   0.00000   0.00000   0.00000
           D27          0.00000   0.00000   0.00000   0.00000   0.00000
           D28          0.00000   0.00000   0.00000   0.00000   0.00000
           D29          0.00000   0.00000   0.00000   0.00000   0.00000
                          A5        A6        A7        A8        A9
           A5           0.16000
           A6           0.00000   0.25000
           A7           0.00000   0.00000   0.16000
           A8           0.00000   0.00000   0.00000   0.25000
           A9           0.00000   0.00000   0.00000   0.00000   0.16000
           A10          0.00000   0.00000   0.00000   0.00000   0.00000
           A11          0.00000   0.00000   0.00000   0.00000   0.00000
           A12          0.00000   0.00000   0.00000   0.00000   0.00000
           A13          0.00000   0.00000   0.00000   0.00000   0.00000
           A14          0.00000   0.00000   0.00000   0.00000   0.00000
           A15          0.00000   0.00000   0.00000   0.00000   0.00000
           A16          0.00000   0.00000   0.00000   0.00000   0.00000
           A17          0.00000   0.00000   0.00000   0.00000   0.00000
           A18          0.00000   0.00000   0.00000   0.00000   0.00000
           A19          0.00000   0.00000   0.00000   0.00000   0.00000
           A20          0.00000   0.00000   0.00000   0.00000   0.00000
           A21          0.00000   0.00000   0.00000   0.00000   0.00000
           A22          0.00000   0.00000   0.00000   0.00000   0.00000
           A23          0.00000   0.00000   0.00000   0.00000   0.00000
           A24          0.00000   0.00000   0.00000   0.00000   0.00000
           A25          0.00000   0.00000   0.00000   0.00000   0.00000
           D1           0.00000   0.00000   0.00000   0.00000   0.00000
           D2           0.00000   0.00000   0.00000   0.00000   0.00000
           D3           0.00000   0.00000   0.00000   0.00000   0.00000
           D4           0.00000   0.00000   0.00000   0.00000   0.00000
           D5           0.00000   0.00000   0.00000   0.00000   0.00000
           D6           0.00000   0.00000   0.00000   0.00000   0.00000
           D7           0.00000   0.00000   0.00000   0.00000   0.00000
           D8           0.00000   0.00000   0.00000   0.00000   0.00000
           D9           0.00000   0.00000   0.00000   0.00000   0.00000
[...]
              1          2          3          4          5          6
     1  C    5.504255   0.417162   0.159108   0.006873   0.486447  -0.003396
     2  H    0.417162   0.529169   0.004581   0.000059  -0.010870  -0.007730
     3  C    0.159108   0.004581   7.566072   0.415448   0.021079  -0.008246
     4  H    0.006873   0.000059   0.415448   0.538221  -0.006155  -0.000272
     5  C    0.486447  -0.010870   0.021079  -0.006155   4.998352   0.379415
     6  H   -0.003396  -0.007730  -0.008246  -0.000272   0.379415   0.534747
     7  C   -0.304619  -0.076481  -2.004382  -0.057157   0.004887  -0.029353
     8  H   -0.006454  -0.005746  -0.018008  -0.000093  -0.000219  -0.000226
     9  C   -0.146076  -0.009230   0.027614   0.013822   0.456028  -0.013331
    10  H   -0.000648  -0.000229  -0.019228  -0.006084  -0.026295  -0.007421
    11  C    0.077670   0.028001  -0.409791  -0.009490  -0.280089   0.020978
    12  O    0.015880  -0.000942   0.092358  -0.020770  -0.010217   0.000284
    13  C    0.001289   0.000473  -0.261698   0.003175  -0.007058   0.000347
    14  H    0.000756  -0.000001  -0.008594   0.000564  -0.000397   0.000000
    15  H   -0.000140   0.000000   0.024785  -0.000729   0.001072   0.000000
    16  H   -0.000140   0.000000   0.024783  -0.000730   0.001071   0.000000
              7          8          9         10         11         12
     1  C   -0.304619  -0.006454  -0.146076  -0.000648   0.077670   0.015880
     2  H   -0.076481  -0.005746  -0.009230  -0.000229   0.028001  -0.000942
     3  C   -2.004382  -0.018008   0.027614  -0.019228  -0.409791   0.092358
     4  H   -0.057157  -0.000093   0.013822  -0.006084  -0.009490  -0.020770
     5  C    0.004887  -0.000219   0.456028  -0.026295  -0.280089  -0.010217
     6  H   -0.029353  -0.000226  -0.013331  -0.007421   0.020978   0.000284
     7  C    9.055442   0.368539   0.053992  -0.014909  -0.377684  -0.490537
     8  H    0.368539   0.517047  -0.005336   0.000050   0.026410  -0.008075
     9  C    0.053992  -0.005336   6.115597   0.390623  -0.372817   0.031309
    10  H   -0.014909   0.000050   0.390623   0.530053   0.021543  -0.000633
    11  C   -0.377684   0.026410  -0.372817   0.021543   7.266336   0.318013
    12  O   -0.490537  -0.008075   0.031309  -0.000633   0.318013   8.127481
    13  C    0.096954   0.001018  -0.080578   0.001521   0.047690   0.149158
    14  H    0.003721  -0.000049   0.002496  -0.000003   0.021543  -0.060705
    15  H   -0.006570   0.000051   0.000039   0.000023  -0.025045  -0.026379
    16  H   -0.006571   0.000051   0.000036   0.000023  -0.025034  -0.026377
             13         14         15         16
     1  C    0.001289   0.000756  -0.000140  -0.000140
     2  H    0.000473  -0.000001   0.000000   0.000000
     3  C   -0.261698  -0.008594   0.024785   0.024783
     4  H    0.003175   0.000564  -0.000729  -0.000730
     5  C   -0.007058  -0.000397   0.001072   0.001071
     6  H    0.000347   0.000000   0.000000   0.000000
     7  C    0.096954   0.003721  -0.006570  -0.006571
     8  H    0.001018  -0.000049   0.000051   0.000051
     9  C   -0.080578   0.002496   0.000039   0.000036
    10  H    0.001521  -0.000003   0.000023   0.000023
    11  C    0.047690   0.021543  -0.025045  -0.025034
    12  O    0.149158  -0.060705  -0.026379  -0.026377
    13  C    5.058844   0.410731   0.404960   0.404956
    14  H    0.410731   0.511435  -0.025026  -0.025027
    15  H    0.404960  -0.025026   0.530308  -0.042204
    16  H    0.404956  -0.025027  -0.042204   0.530311
 Mulliken atomic charges:
              1
     1  C   -0.207967
     2  H    0.131784
     3  C    0.394119
     4  H    0.123319
     5  C   -0.007052
     6  H    0.134205
     7  C   -0.215271
     8  H    0.131040
     9  C   -0.464189
    10  H    0.131613
    11  C   -0.328234
    12  O   -0.089848
    13  C   -0.231780
    14  H    0.168555
    15  H    0.164854
    16  H    0.164850
 Sum of Mulliken atomic charges =   0.00000
 Mulliken charges with hydrogens summed into heavy atoms:
              1
     1  C   -0.076182
     3  C    0.517438
     5  C    0.127153
     7  C   -0.084231
     9  C   -0.332576
    11  C   -0.328234
    12  O   -0.089848
    13  C    0.266480
 Sum of Mulliken charges with hydrogens summed into heavy atoms =   0.00000
 Electronic spatial extent (au):  <R**2>=           1156.2109
 Charge=              0.0000 electrons
 Dipole moment (field-independent basis, Debye):
    X=             -2.5427    Y=             -0.9343    Z=              0.0003  Tot=              2.7089
 Quadrupole moment (field-independent basis, Debye-Ang):
   XX=            -37.6715   YY=            -44.3797   ZZ=            -53.1908
   XY=              6.7287   XZ=             -0.0020   YZ=             -0.0007
 Traceless Quadrupole moment (field-independent basis, Debye-Ang):
   XX=              7.4092   YY=              0.7010   ZZ=             -8.1102
   XY=              6.7287   XZ=             -0.0020   YZ=             -0.0007
 Octapole moment (field-independent basis, Debye-Ang**2):
  XXX=             52.9649  YYY=             77.7547  ZZZ=             -0.0181  XYY=             11.8711
  XXY=              5.8811  XXZ=             -0.0028  XZZ=             24.3951  YZZ=             25.9783
  YYZ=             -0.0044  XYZ=              0.0026
 Hexadecapole moment (field-independent basis, Debye-Ang**3):
 XXXX=           -646.2345 YYYY=           -709.6781 ZZZZ=            -75.8059 XXXY=           -128.3760
 XXXZ=              0.0288 YYYX=           -144.1730 YYYZ=              0.0212 ZZZX=              0.0454
 ZZZY=              0.0224 XXYY=           -184.0326 XXZZ=           -141.5816 YYZZ=           -148.1492
 XXYZ=              0.0011 YYXZ=              0.0056 ZZXY=            -60.2205
 N-N= 3.423818751330D+02 E-N=-1.491489442083D+03  KE= 3.452096353849D+02
 No NMR shielding tensors so no spin-rotation constants.
 Leave Link  601 at Thu Sep 10 02:01:01 2015, MaxMem=  134217728 cpu:       0.3
 (Enter /apps/Gausian/g09/l701.exe)
 Compute integral first derivatives.
 ... and contract with generalized density number  6.
 Leave Link  701 at Thu Sep 10 02:01:02 2015, MaxMem=  134217728 cpu:       0.3
 (Enter /apps/Gausian/g09/l702.exe)
 L702 exits ... SP integral derivatives will be done elsewhere.
 Leave Link  702 at Thu Sep 10 02:01:02 2015, MaxMem=  134217728 cpu:       0.0
 (Enter /apps/Gausian/g09/l703.exe)
 Compute integral first derivatives, UseDBF=F ICtDFT=           0.
 Integral derivatives from FoFDir, PRISM(SPDF).
 Calling FoFJK, ICntrl=      5127 FMM=F ISym2X=0 I1Cent= 0 IOpClX= 0 NMat=1 NMatS=1 NMatT=0.
 FoFCou: FMM=F IPFlag=           0 FMFlag=      100000 FMFlg1=         800
         NFxFlg=           0 DoJE=F BraDBF=F KetDBF=F FulRan=T
         Omega=  0.000000  0.000000  1.000000  0.000000  0.000000 ICntrl=    5127 IOpCl=  0
         NMat0=    1 NMatS0=    1 NMatT0=    0 NMatD0=    1 NMtDS0=    0 NMtDT0=    0
         I1Cent=           0 NGrid=           0.
 Symmetry not used in FoFCou.
 Leave Link  703 at Thu Sep 10 02:01:20 2015, MaxMem=  134217728 cpu:      36.9
 (Enter /apps/Gausian/g09/l716.exe)
 Dipole        =-1.00036929D+00-3.67589284D-01 1.10020903D-04
 -------------------------------------------------------------------
 Center     Atomic                   Forces (Hartrees/Bohr)
 Number     Number              X              Y              Z
 -------------------------------------------------------------------
      1        6          -0.001285485    0.000012819    0.000000153
      2        1           0.000648694    0.000006852   -0.000000026
      3        6          -0.000019622    0.000030777    0.000000276
      4        1          -0.000002355   -0.000003129   -0.000000125
      5        6           0.000253097   -0.000156047    0.000000005
      6        1          -0.000031808    0.000038911    0.000000023
      7        6           0.000262076    0.000197574   -0.000000102
      8        1          -0.000017559   -0.000019240    0.000000041
      9        6           0.000073252   -0.000121095   -0.000000168
     10        1          -0.000000972    0.000001613    0.000000011
     11        6           0.000083504    0.000048172    0.000000139
     12        8           0.000011527   -0.000009378   -0.000000472
     13        6           0.000008471   -0.000001613    0.000000414
     14        1           0.000009919   -0.000008019    0.000000037
     15        1           0.000003624   -0.000009048   -0.000000460
     16        1           0.000003638   -0.000009151    0.000000253
 -------------------------------------------------------------------
 Cartesian Forces:  Max     0.001285485 RMS     0.000219096
 Leave Link  716 at Thu Sep 10 02:01:20 2015, MaxMem=  134217728 cpu:       0.1
 (Enter /apps/Gausian/g09/l106.exe)
 NDeriv=  48 NFrqRd=  0 LFDDif=       1
 NDeriv=  48 NFrqRd=  0 LFDDif=       1
 Re-enter D2Numr: IAtom=  1 IXYZ=1 IStep= 1.
 Leave Link  106 at Thu Sep 10 02:01:20 2015, MaxMem=  134217728 cpu:       0.2
 (Enter /apps/Gausian/g09/l301.exe)
 Standard basis: 6-311+G(d,p) (5D, 7F)
 Ernie: Thresh=  0.10000D-02 Tol=  0.10000D-05 Strict=F.
 Integral buffers will be    131072 words long.
 Raffenetti 2 integral format.
 Two-electron integral symmetry is turned off.
   224 basis functions,   352 primitive gaussians,   232 cartesian basis functions
    29 alpha electrons       29 beta electrons
       nuclear repulsion energy       342.4171539281 Hartrees.
 IExCor=  402 DFT=T Ex+Corr=B3LYP ExCW=0 ScaHFX=  0.200000
 ScaDFX=  0.800000  0.720000  1.000000  0.810000 ScalE2=  1.000000  1.000000
 IRadAn=      0 IRanWt=     -1 IRanGd=            0 ICorTp=0
 NAtoms=   16 NActive=   16 NUniq=   16 SFac= 1.00D+00 NAtFMM=   60 NAOKFM=F Big=F
 Leave Link  301 at Thu Sep 10 02:01:20 2015, MaxMem=  134217728 cpu:       0.1
 (Enter /apps/Gausian/g09/l302.exe)
 NPDir=0 NMtPBC=     1 NCelOv=     1 NCel=       1 NClECP=     1 NCelD=      1
         NCelK=      1 NCelE2=     1 NClLst=     1 CellRange=     0.0.
 One-electron integrals computed using PRISM.
 NBasis=   224 RedAO= T  NBF=   224
 NBsUse=   224 1.00D-06 NBFU=   224
 Precomputing XC quadrature grid using
 IXCGrd= 2 IRadAn=           0 IRanWt=          -1 IRanGd=           0 AccXCQ= 0.00D+00.
 NRdTot=    1031 NPtTot=      131318 NUsed=      138756 NTot=      138788
 NSgBfM=   232   232   232   232   232 NAtAll=    16    16.
 Leave Link  302 at Thu Sep 10 02:01:20 2015, MaxMem=  134217728 cpu:       0.5
 (Enter /apps/Gausian/g09/l308.exe)
 Leave Link  308 at Thu Sep 10 02:01:21 2015, MaxMem=  134217728 cpu:       0.1
 (Enter /apps/Gausian/g09/l303.exe)
 DipDrv:  MaxL=1.
 Leave Link  303 at Thu Sep 10 02:01:21 2015, MaxMem=  134217728 cpu:       0.0
 (Enter /apps/Gausian/g09/l401.exe)
 Initial guess read from the read-write file.
 B after Tr=     0.000000    0.000000    0.000000
         Rot=    1.000000    0.000000    0.000000    0.000000 Ang=   0.00 deg.
 Guess basis will be translated and rotated to current coordinates.
 Leave Link  401 at Thu Sep 10 02:01:21 2015, MaxMem=  134217728 cpu:       0.3
 (Enter /apps/Gausian/g09/l502.exe)
 Closed shell SCF:
 Requested convergence on RMS density matrix=1.00D-08 within 128 cycles.
 Requested convergence on MAX density matrix=1.00D-06.
 Requested convergence on             energy=1.00D-06.
 No special actions if energy rises.
 Using DIIS extrapolation, IDIIS=  1040.
 Two-electron integral symmetry not used.
       138599 words used for storage of precomputed grid.
 IEnd=      321033 IEndB=      321033 NGot=   134217728 MDV=   133967392
 LenX=   133967392 LenY=   133913127
 Fock matrices will be formed incrementally for  20 cycles.

 Cycle   1  Pass 1  IDiag  1:
 FoFCou: FMM=F IPFlag=           0 FMFlag=      100000 FMFlg1=           0
         NFxFlg=           0 DoJE=F BraDBF=F KetDBF=F FulRan=T
         Omega=  0.000000  0.000000  1.000000  0.000000  0.000000 ICntrl=       0 IOpCl=  0
         NMat0=    1 NMatS0=    1 NMatT0=    0 NMatD0=    1 NMtDS0=    0 NMtDT0=    0
         I1Cent=           0 NGrid=           0.
 Symmetry not used in FoFCou.
 E= -346.862142203268    
 DIIS: error= 6.61D-05 at cycle   1 NSaved=   1.
 NSaved= 1 IEnMin= 1 EnMin= -346.862142203268     IErMin= 1 ErrMin= 6.61D-05
 ErrMax= 6.61D-05 EMaxC= 1.00D-01 BMatC= 1.77D-06 BMatP= 1.77D-06
 IDIUse=1 WtCom= 1.00D+00 WtEn= 0.00D+00
 Coeff-Com:  0.100D+01
 Coeff:      0.100D+01
 Gap=     0.199 Goal=   None    Shift=    0.000
 RMSDP=4.04D-05 MaxDP=1.66D-03              OVMax= 3.97D-04

 Cycle   2  Pass 1  IDiag  1:
 RMSU=  2.85D-05    CP:  1.00D+00
 E= -346.862143945101     Delta-E=       -0.000001741833 Rises=F Damp=F
 DIIS: error= 2.04D-05 at cycle   2 NSaved=   2.
 NSaved= 2 IEnMin= 2 EnMin= -346.862143945101     IErMin= 2 ErrMin= 2.04D-05
 ErrMax= 2.04D-05 EMaxC= 1.00D-01 BMatC= 1.20D-07 BMatP= 1.77D-06
 IDIUse=1 WtCom= 1.00D+00 WtEn= 0.00D+00
 Coeff-Com:  0.802D-01 0.920D+00
 Coeff:      0.802D-01 0.920D+00
 Gap=     0.199 Goal=   None    Shift=    0.000
 RMSDP=3.87D-06 MaxDP=3.27D-04 DE=-1.74D-06 OVMax= 3.03D-04

 Cycle   3  Pass 1  IDiag  1:
 RMSU=  2.53D-06    CP:  1.00D+00  1.03D+00
 E= -346.862143878297     Delta-E=        0.000000066805 Rises=F Damp=F
 DIIS: error= 3.84D-05 at cycle   3 NSaved=   3.
 NSaved= 3 IEnMin= 2 EnMin= -346.862143945101     IErMin= 2 ErrMin= 2.04D-05
 ErrMax= 3.84D-05 EMaxC= 1.00D-01 BMatC= 1.74D-07 BMatP= 1.20D-07
 IDIUse=1 WtCom= 1.00D+00 WtEn= 0.00D+00
 Coeff-Com: -0.620D-02 0.551D+00 0.455D+00
 Coeff:     -0.620D-02 0.551D+00 0.455D+00
 Gap=     0.199 Goal=   None    Shift=    0.000
 RMSDP=2.65D-06 MaxDP=1.21D-04 DE= 6.68D-08 OVMax= 2.46D-04

 Cycle   4  Pass 1  IDiag  1:
 RMSU=  1.09D-06    CP:  1.00D+00  1.03D+00  4.04D-01
 E= -346.862144048431     Delta-E=       -0.000000170135 Rises=F Damp=F
 DIIS: error= 1.10D-05 at cycle   4 NSaved=   4.
 NSaved= 4 IEnMin= 4 EnMin= -346.862144048431     IErMin= 4 ErrMin= 1.10D-05
 ErrMax= 1.10D-05 EMaxC= 1.00D-01 BMatC= 7.61D-09 BMatP= 1.20D-07
 IDIUse=1 WtCom= 1.00D+00 WtEn= 0.00D+00
 Coeff-Com: -0.730D-02 0.203D+00 0.239D+00 0.565D+00
 Coeff:     -0.730D-02 0.203D+00 0.239D+00 0.565D+00
 Gap=     0.199 Goal=   None    Shift=    0.000
 RMSDP=8.73D-07 MaxDP=3.61D-05 DE=-1.70D-07 OVMax= 5.44D-05

 Cycle   5  Pass 1  IDiag  1:
 RMSU=  4.47D-07    CP:  1.00D+00  1.03D+00  5.23D-01  7.50D-01
 E= -346.862144055894     Delta-E=       -0.000000007463 Rises=F Damp=F
 DIIS: error= 4.27D-06 at cycle   5 NSaved=   5.
 NSaved= 5 IEnMin= 5 EnMin= -346.862144055894     IErMin= 5 ErrMin= 4.27D-06
 ErrMax= 4.27D-06 EMaxC= 1.00D-01 BMatC= 1.34D-09 BMatP= 7.61D-09
 IDIUse=1 WtCom= 1.00D+00 WtEn= 0.00D+00
 Coeff-Com: -0.383D-02 0.633D-01 0.101D+00 0.353D+00 0.486D+00
 Coeff:     -0.383D-02 0.633D-01 0.101D+00 0.353D+00 0.486D+00
 Gap=     0.199 Goal=   None    Shift=    0.000
 RMSDP=1.94D-07 MaxDP=4.97D-06 DE=-7.46D-09 OVMax= 1.73D-05

 Cycle   6  Pass 1  IDiag  1:
 RMSU=  8.51D-08    CP:  1.00D+00  1.03D+00  5.11D-01  7.65D-01  7.73D-01
 E= -346.862144057273     Delta-E=       -0.000000001378 Rises=F Damp=F
 DIIS: error= 4.92D-07 at cycle   6 NSaved=   6.
 NSaved= 6 IEnMin= 6 EnMin= -346.862144057273     IErMin= 6 ErrMin= 4.92D-07
 ErrMax= 4.92D-07 EMaxC= 1.00D-01 BMatC= 3.25D-11 BMatP= 1.34D-09
 IDIUse=1 WtCom= 1.00D+00 WtEn= 0.00D+00
 Coeff-Com: -0.913D-03 0.933D-02 0.256D-01 0.110D+00 0.194D+00 0.662D+00
 Coeff:     -0.913D-03 0.933D-02 0.256D-01 0.110D+00 0.194D+00 0.662D+00
 Gap=     0.199 Goal=   None    Shift=    0.000
 RMSDP=6.18D-08 MaxDP=3.26D-06 DE=-1.38D-09 OVMax= 2.83D-06

 Cycle   7  Pass 1  IDiag  1:
 RMSU=  3.49D-08    CP:  1.00D+00  1.03D+00  5.14D-01  7.73D-01  7.27D-01
                    CP:  9.24D-01
 E= -346.862144057297     Delta-E=       -0.000000000024 Rises=F Damp=F
 DIIS: error= 2.03D-07 at cycle   7 NSaved=   7.
 NSaved= 7 IEnMin= 7 EnMin= -346.862144057297     IErMin= 7 ErrMin= 2.03D-07
 ErrMax= 2.03D-07 EMaxC= 1.00D-01 BMatC= 6.80D-12 BMatP= 3.25D-11
 IDIUse=1 WtCom= 1.00D+00 WtEn= 0.00D+00
 Coeff-Com: -0.939D-04-0.210D-02 0.296D-02 0.185D-01 0.457D-01 0.360D+00
 Coeff-Com:  0.575D+00
 Coeff:     -0.939D-04-0.210D-02 0.296D-02 0.185D-01 0.457D-01 0.360D+00
 Coeff:      0.575D+00
 Gap=     0.199 Goal=   None    Shift=    0.000
 RMSDP=3.98D-08 MaxDP=2.47D-06 DE=-2.43D-11 OVMax= 8.88D-07

 Cycle   8  Pass 1  IDiag  1:
 RMSU=  1.61D-08    CP:  1.00D+00  1.03D+00  5.14D-01  7.83D-01  7.30D-01
                    CP:  8.92D-01  7.04D-01
 E= -346.862144057305     Delta-E=       -0.000000000008 Rises=F Damp=F
 DIIS: error= 6.36D-08 at cycle   8 NSaved=   8.
 NSaved= 8 IEnMin= 8 EnMin= -346.862144057305     IErMin= 8 ErrMin= 6.36D-08
 ErrMax= 6.36D-08 EMaxC= 1.00D-01 BMatC= 4.94D-13 BMatP= 6.80D-12
 IDIUse=1 WtCom= 1.00D+00 WtEn= 0.00D+00
 Coeff-Com:  0.540D-05-0.169D-02 0.131D-03 0.176D-02 0.105D-01 0.144D+00
 Coeff-Com:  0.293D+00 0.552D+00
 Coeff:      0.540D-05-0.169D-02 0.131D-03 0.176D-02 0.105D-01 0.144D+00
 Coeff:      0.293D+00 0.552D+00
 Gap=     0.199 Goal=   None    Shift=    0.000
 RMSDP=1.29D-08 MaxDP=9.31D-07 DE=-8.19D-12 OVMax= 2.30D-07

 Cycle   9  Pass 1  IDiag  1:
 RMSU=  3.28D-09    CP:  1.00D+00  1.03D+00  5.14D-01  7.80D-01  7.35D-01
                    CP:  9.07D-01  7.50D-01  7.38D-01
 E= -346.862144057304     Delta-E=        0.000000000001 Rises=F Damp=F
 DIIS: error= 2.56D-08 at cycle   9 NSaved=   9.
 NSaved= 9 IEnMin= 8 EnMin= -346.862144057305     IErMin= 9 ErrMin= 2.56D-08
 ErrMax= 2.56D-08 EMaxC= 1.00D-01 BMatC= 7.13D-14 BMatP= 4.94D-13
 IDIUse=1 WtCom= 1.00D+00 WtEn= 0.00D+00
 Coeff-Com:  0.196D-04-0.682D-03-0.348D-03-0.225D-02-0.127D-02 0.266D-01
 Coeff-Com:  0.701D-01 0.301D+00 0.607D+00
 Coeff:      0.196D-04-0.682D-03-0.348D-03-0.225D-02-0.127D-02 0.266D-01
 Coeff:      0.701D-01 0.301D+00 0.607D+00
 Gap=     0.199 Goal=   None    Shift=    0.000
 RMSDP=2.00D-09 MaxDP=1.03D-07 DE= 1.48D-12 OVMax= 6.60D-08

 SCF Done:  E(RB3LYP) =  -346.862144057     A.U. after    9 cycles
             Convg  =    0.1998D-08             -V/T =  2.0052
 KE= 3.450542723532D+02 PE=-1.491972356868D+03 EE= 4.576387865295D+02
 Leave Link  502 at Thu Sep 10 02:02:09 2015, MaxMem=  134217728 cpu:      95.6
 (Enter /apps/Gausian/g09/l801.exe)
 ExpMin= 4.38D-02 ExpMax= 8.59D+03 ExpMxC= 1.30D+03 IAcc=3 IRadAn=         5 AccDes= 0.00D+00
 HarFok:  IExCor=  205 AccDes= 0.00D+00 IRadAn=         5 IDoV=-2
 ScaDFX=  1.000000  1.000000  1.000000  1.000000
 Largest valence mixing into a core orbital is  5.72D-05
 Largest core mixing into a valence orbital is  1.43D-05
 Range of M.O.s used for correlation:     9   224
 NBasis=   224 NAE=    29 NBE=    29 NFC=     8 NFV=     0
 NROrb=    216 NOA=    21 NOB=    21 NVA=   195 NVB=   195

 **** Warning!!: The largest alpha MO coefficient is  0.15186390D+03

 Leave Link  801 at Thu Sep 10 02:02:09 2015, MaxMem=  134217728 cpu:       0.6
 (Enter /apps/Gausian/g09/l914.exe)
 RHF ground state
 MDV=   134217728 DFT=T DoStab=F Mixed=T DoRPA=T DoScal=F NonHer=T
 Would need an additional   969300000 words for in-memory AO integral storage.
 Making orbital integer symmetry assigments:
 Generating guess from densities on rwf.
 Convergence on wavefunction:    0.000001000000000
 Davidson Disk Diagonalization:  ConvIn= 1.00D-06 SkipCon=T Conv= 1.00D-06.
 Max sub-space:   200 roots to seek:     2 dimension of matrix:   8190
 Iteration     1 Dimension     4 NMult     4
 CISAX:  IP=  1 NPass=   1 NMax=     4.
 CISAX will form     4 AO SS matrices at one time.
 NMat=     4 NSing=     4.
 Symmetry not used in FoFDir.
 MinBra= 0 MaxBra= 2 Meth= 1.
 IRaf=       0 NMat=   4 IRICut=       1 DoRegI=T DoRafI=F ISym2E= 0 JSym2E=0.
 CISAX:  IP=  1 NPass=   1 NMax=     4.
 CISAX will form     4 AO SS matrices at one time.
 NMat=     4 NSing=     4.
 Excitation Energies [eV] at current iteration:
 Root      1 :     4.723860838010058
 Root      2 :     5.340568798246441
 Iteration     2 Dimension     8 NMult     8
 CISAX:  IP=  1 NPass=   1 NMax=     4.
 CISAX will form     4 AO SS matrices at one time.
 NMat=     4 NSing=     4.
