 argument  1 = initial.inp



============================== echo of input deck ==============================
echo

title "f_water"

start f_water

# water molecule

geometry units angstroms
 O     0.00000000     0.00000000     0.12002077
 H     0.76262979     0.00000000    -0.47723503
 H    -0.76262979     0.00000000    -0.47723503
end

basis "ao basis" spherical
   * library def2-TZVP
end
charge 0

DFT
 xc b3lyp
 cgmin
 odft
 mult 1
END
task dft energy

scf;
  thresh 1e-6;
end
driver
   tight
end
task scf freq
================================================================================


                                         
                                         


              Northwest Computational Chemistry Package (NWChem) 6.5
              ------------------------------------------------------


                    Environmental Molecular Sciences Laboratory
                       Pacific Northwest National Laboratory
                                Richland, WA 99352

                              Copyright (c) 1994-2014
                       Pacific Northwest National Laboratory
                            Battelle Memorial Institute

             NWChem is an open-source computational chemistry package
                        distributed under the terms of the
                      Educational Community License (ECL) 2.0
             A copy of the license is included with this distribution
                              in the LICENSE.TXT file

                                  ACKNOWLEDGMENT
                                  --------------

            This software and its documentation were developed at the
            EMSL at Pacific Northwest National Laboratory, a multiprogram
            national laboratory, operated for the U.S. Department of Energy
            by Battelle under Contract Number DE-AC05-76RL01830. Support
            for this work was provided by the Department of Energy Office
            of Biological and Environmental Research, Office of Basic
            Energy Sciences, and the Office of Advanced Scientific Computing.


           Job information
           ---------------

    hostname        = node2-014
    program         = nwchem
    date            = Fri Nov 20 14:26:12 2015

    compiled        = Tue_Aug_11_16:01:04_2015
    source          = /home/tm162/Hubert/Nwchem-6.5.revision26243-src.2014-09-10
    nwchem branch   = 6.5
    nwchem revision = 26243
    ga revision     = 10506
    input           = initial.inp
    prefix          = f_water.
    data base       = ./f_water.db
    status          = startup
    nproc           =        1
    time left       =     -1s



           Memory information
           ------------------

    heap     =   13107198 doubles =    100.0 Mbytes
    stack    =   13107195 doubles =    100.0 Mbytes
    global   =   26214400 doubles =    200.0 Mbytes (distinct from heap & stack)
    total    =   52428793 doubles =    400.0 Mbytes
    verify   = yes
    hardfail = no 


           Directory information
           ---------------------

  0 permanent = .
  0 scratch   = .




                                NWChem Input Module
                                -------------------


                                      f_water
                                      -------

 Scaling coordinates for geometry "geometry" by  1.889725989
 (inverse scale =  0.529177249)

 C2V symmetry detected

          ------
          auto-z
          ------


                             Geometry "geometry" -> ""
                             -------------------------

 Output coordinates in angstroms (scale by  1.889725989 to convert to a.u.)

  No.       Tag          Charge          X              Y              Z
 ---- ---------------- ---------- -------------- -------------- --------------
    1 O                    8.0000     0.00000000     0.00000000     0.11945116
    2 H                    1.0000     0.76262979     0.00000000    -0.47780464
    3 H                    1.0000    -0.76262979     0.00000000    -0.47780464

      Atomic Mass 
      ----------- 

      O                 15.994910
      H                  1.007825


 Effective nuclear repulsion energy (a.u.)       9.0876373777

            Nuclear Dipole moment (a.u.) 
            ----------------------------
        X                 Y               Z
 ---------------- ---------------- ----------------
     0.0000000000     0.0000000000     0.0000000000

      Symmetry information
      --------------------

 Group name             C2v       
 Group number             16
 Group order               4
 No. of unique centers     2

      Symmetry unique atoms

     1    2



                                Z-matrix (autoz)
                                -------- 

 Units are Angstrom for bonds and degrees for angles

      Type          Name      I     J     K     L     M      Value
      ----------- --------  ----- ----- ----- ----- ----- ----------
    1 Stretch                  1     2                       0.96867
    2 Stretch                  1     3                       0.96867
    3 Bend                     2     1     3               103.86724


            XYZ format geometry
            -------------------
     3
 geometry
 O                     0.00000000     0.00000000     0.11945116
 H                     0.76262979     0.00000000    -0.47780464
 H                    -0.76262979     0.00000000    -0.47780464

 ==============================================================================
                                internuclear distances
 ------------------------------------------------------------------------------
       center one      |      center two      | atomic units |  angstroms
 ------------------------------------------------------------------------------
    2 H                |   1 O                |     1.83052  |     0.96867
    3 H                |   1 O                |     1.83052  |     0.96867
 ------------------------------------------------------------------------------
                         number of included internuclear distances:          2
 ==============================================================================



 ==============================================================================
                                 internuclear angles
 ------------------------------------------------------------------------------
        center 1       |       center 2       |       center 3       |  degrees
 ------------------------------------------------------------------------------
    2 H                |   1 O                |   3 H                |   103.87
 ------------------------------------------------------------------------------
                            number of included internuclear angles:          1
 ==============================================================================





 Summary of "ao basis" -> "" (spherical)
 ------------------------------------------------------------------------------
       Tag                 Description            Shells   Functions and Types
 ---------------- ------------------------------  ------  ---------------------
 *                         def2-TZVP                  on all atoms 



                                 NWChem DFT Module
                                 -----------------


                                      f_water


                      Basis "ao basis" -> "ao basis" (spherical)
                      -----
  O (Oxygen)
  ----------
            Exponent  Coefficients 
       -------------- ---------------------------------------------------------
  1 S  2.70323826E+04  0.000217
  1 S  4.05238714E+03  0.001684
  1 S  9.22327227E+02  0.008740
  1 S  2.61240710E+02  0.035240
  1 S  8.53546414E+01  0.111535
  1 S  3.10350352E+01  0.255890

  2 S  1.22608607E+01  0.397687
  2 S  4.99870760E+00  0.246278

  3 S  1.17031082E+00  1.000000

  4 S  4.64747410E-01  1.000000

  5 S  1.85045364E-01  1.000000

  6 P  6.32749548E+01  0.006069
  6 P  1.46270494E+01  0.041913
  6 P  4.45012235E+00  0.161538
  6 P  1.52757996E+00  0.357070

  7 P  5.29351179E-01  1.000000

  8 P  1.74784213E-01  1.000000

  9 D  2.31400000E+00  1.000000

 10 D  6.45000000E-01  1.000000

 11 F  1.42800000E+00  1.000000

  H (Hydrogen)
  ------------
            Exponent  Coefficients 
       -------------- ---------------------------------------------------------
  1 S  3.40613410E+01  0.006025
  1 S  5.12357460E+00  0.045021
  1 S  1.16466260E+00  0.201897

  2 S  3.27230410E-01  1.000000

  3 S  1.03072410E-01  1.000000

  4 P  8.00000000E-01  1.000000



 Summary of "ao basis" -> "ao basis" (spherical)
 ------------------------------------------------------------------------------
       Tag                 Description            Shells   Functions and Types
 ---------------- ------------------------------  ------  ---------------------
 O                         def2-TZVP                11       31   5s3p2d1f
 H                         def2-TZVP                 4        6   3s1p




 Summary of "ao basis" -> "ao basis" (spherical)
 ------------------------------------------------------------------------------
       Tag                 Description            Shells   Functions and Types
 ---------------- ------------------------------  ------  ---------------------
 O                         def2-TZVP                11       31   5s3p2d1f
 H                         def2-TZVP                 4        6   3s1p


      Symmetry analysis of basis
      --------------------------

        a1         19
        a2          4
        b1         12
        b2          8

  Caching 1-el integrals 

            General Information
            -------------------
          SCF calculation type: DFT
          Wavefunction type:  spin polarized.
          No. of atoms     :     3
          No. of electrons :    10
           Alpha electrons :     5
            Beta electrons :     5
          Charge           :     0
          Spin multiplicity:     1
          Use of symmetry is: on ; symmetry adaption is: on 
          Maximum number of iterations:  30
          AO basis - number of functions:    43
                     number of shells:    19
          Convergence on energy requested: 1.00D-06
          Convergence on density requested: 1.00D-05
          Convergence on gradient requested: 5.00D-04

              XC Information
              --------------
                         B3LYP Method XC Potential
                     Hartree-Fock (Exact) Exchange  0.200          
                        Slater Exchange Functional  0.800 local    
                    Becke 1988 Exchange Functional  0.720 non-local
              Lee-Yang-Parr Correlation Functional  0.810          
                  VWN I RPA Correlation Functional  0.190 local    

             Grid Information
             ----------------
          Grid used for XC integration:  medium    
          Radial quadrature: Mura-Knowles        
          Angular quadrature: Lebedev. 
          Tag              B.-S. Rad. Rad. Pts. Rad. Cut. Ang. Pts.
          ---              ---------- --------- --------- ---------
          O                   0.60       49           6.0       434
          H                   0.35       45           7.0       434
          Grid pruning is: on 
          Number of quadrature shells:    94
          Spatial weights used:  Erf1

          Convergence Information
          -----------------------
          Convergence aids based upon iterative change in 
          total energy or number of iterations. 
          Levelshifting, if invoked, occurs when the 
          HOMO/LUMO gap drops below (HL_TOL): 1.00D-02
          DIIS, if invoked, will attempt to extrapolate 
          using up to (NFOCK): 10 stored Fock matrices.

                    Damping( 0%)  Levelshifting(0.5)       DIIS
                  --------------- ------------------- ---------------
          dE  on:    start            ASAP                start   
          dE off:    2 iters         30 iters            30 iters 


      Screening Tolerance Information
      -------------------------------
          Density screening/tol_rho: 1.00D-10
          AO Gaussian exp screening on grid/accAOfunc:  14
          CD Gaussian exp screening on grid/accCDfunc:  20
          XC Gaussian exp screening on grid/accXCfunc:  20
          Schwarz screening/accCoul: 1.00D-08


      Superposition of Atomic Density Guess
      -------------------------------------

 Sum of atomic energies:         -75.78392565

      Non-variational initial energy
      ------------------------------

 Total energy =     -75.927400
 1-e energy   =    -121.580363
 2-e energy   =      36.565326
 HOMO         =      -0.476250
 LUMO         =       0.058381


   Symmetry analysis of molecular orbitals - initial alpha
   -------------------------------------------------------

  Numbering of irreducible representations: 

     1 a1          2 a2          3 b1          4 b2      

  Orbital symmetries:

     1 a1          2 a1          3 b1          4 a1          5 b2      
     6 a1          7 b1          8 b1          9 a1         10 b2      
    11 a1         12 b1         13 a1         14 a1         15 a2      


   Symmetry analysis of molecular orbitals - initial beta
   ------------------------------------------------------

  Numbering of irreducible representations: 

     1 a1          2 a2          3 b1          4 b2      

  Orbital symmetries:

     1 a1          2 a1          3 b1          4 a1          5 b2      
     6 a1          7 b1          8 b1          9 a1         10 b2      
    11 a1         12 b1         13 a1         14 a1         15 a2      



 ----------------------------------------------
         Quadratically convergent UKS

 Convergence threshold     :          5.000E-04
 Maximum no. of iterations :           30
 Integral*density screening:          1.000E-07
 ----------------------------------------------


 Integral file          = ./f_water.aoints.0
 Record size in doubles =    65536    No. of integs per rec  =    43688
 Max. records in memory =        6    Max. records in file   = ********
 No. of bits per label  =        8    No. of bits per value  =       64


 #quartets = 1.179D+04 #integrals = 1.218D+05 #direct =  0.0% #cached =100.0%


 Grid_pts file          = ./f_water.gridpts.0
 Record size in doubles =  12289        No. of grid_pts per rec  =   3070
 Max. records in memory =     16        Max. recs in file   = *********


              iter       energy          gnorm     gmax       time
             ----- ------------------- --------- --------- --------
                 1      -76.4223578283  6.50D-01  1.32D-01      0.5
                 2      -76.4580415549  2.92D-01  8.56D-02      0.9
                 3      -76.4628697194  2.05D-02  6.05D-03      1.4
                 4      -76.4629015019  1.07D-03  3.85D-04      2.0
                 5      -76.4629016586  1.42D-04  5.07D-05      2.6


         Total DFT energy =      -76.462901658637
      One electron energy =     -122.916995187486
           Coulomb energy =       46.701608180442
    Exchange-Corr. energy =       -9.335152029339
 Nuclear repulsion energy =        9.087637377746

 Numeric. integr. density =       10.000000366435

     Total iterative time =      2.3s



                    DFT Final Alpha Molecular Orbital Analysis
                    ------------------------------------------

 Vector    1  Occ=1.000000D+00  E=-1.912904D+01  Symmetry=a1
              MO Center= -3.2D-17,  6.0D-19,  1.2D-01, r^2= 1.5D-02
   Bfn.  Coefficient  Atom+Function         Bfn.  Coefficient  Atom+Function  
  ----- ------------  ---------------      ----- ------------  ---------------
     2    0.639775310332      1 O  s                  1    0.435058749883      1 O  s          
     3    0.341552171186E-01  1 O  s                  4   -0.221021862117E-01  1 O  s          
     5    0.895378449359E-02  1 O  s                 11    0.300485370630E-02  1 O  pz         
    34   -0.185924076690E-02  2 H  s                 40   -0.185924076690E-02  3 H  s          
     8   -0.179935881858E-02  1 O  pz                33    0.160917407305E-02  2 H  s          
    39    0.160917407305E-02  3 H  s                 14   -0.109708369694E-02  1 O  pz         
    24   -0.942402337237E-03  1 O  d  2              35   -0.919068574868E-03  2 H  px         
    41    0.919068574868E-03  3 H  px                32    0.843788893241E-03  2 H  s          
    38    0.843788893241E-03  3 H  s                 37    0.652075031321E-03  2 H  pz         
    43    0.652075031321E-03  3 H  pz                30    0.350506343243E-03  1 O  f  2       
    19    0.189650483625E-03  1 O  d  2              22   -0.175775305443E-03  1 O  d  0       
    28   -0.149118948676E-03  1 O  f  0              17    0.400667297253E-04  1 O  d  0       
     9    0.119718332995E-14  1 O  px                12   -0.601909173334E-15  1 O  px         
     6   -0.487658788900E-15  1 O  px                23    0.218792856254E-15  1 O  d  1       
    18    0.705048580834E-16  1 O  d  1              29   -0.269247201739E-16  1 O  f  1       
    31   -0.215894080677E-16  1 O  f  3              13    0.133196722738E-16  1 O  py         
    10    0.803268463047E-17  1 O  py                36    0.528410363518E-17  2 H  py         
    20   -0.515486801020E-17  1 O  d -2              21   -0.437291045767E-17  1 O  d -1       
     7    0.225950413262E-17  1 O  py                25    0.104984382849E-17  1 O  f -3       
    16   -0.857777219464E-18  1 O  d -1              42   -0.593623201430E-18  3 H  py         
    15   -0.513303218995E-18  1 O  d -2              26    0.208132757891E-18  1 O  f -2       
    27    0.259733721472E-20  1 O  f -1       

 Vector    2  Occ=1.000000D+00  E=-1.012581D+00  Symmetry=a1
              MO Center= -9.4D-16,  2.3D-16, -8.2D-02, r^2= 5.0D-01
   Bfn.  Coefficient  Atom+Function         Bfn.  Coefficient  Atom+Function  
  ----- ------------  ---------------      ----- ------------  ---------------
     4    0.436806586968      1 O  s                  3    0.335949596767      1 O  s          
     2   -0.229780215681      1 O  s                  5    0.158214874552      1 O  s          
     1   -0.977367577527E-01  1 O  s                 32    0.934190795193E-01  2 H  s          
    38    0.934190795194E-01  3 H  s                  8   -0.863049290631E-01  1 O  pz         
    11   -0.724289317894E-01  1 O  pz                33    0.700081282538E-01  2 H  s          
    39    0.700081282538E-01  3 H  s                 35   -0.149518116857E-01  2 H  px         
    41    0.149518116857E-01  3 H  px                14   -0.118076221561E-01  1 O  pz         
    24    0.101491534376E-01  1 O  d  2              37    0.841586111942E-02  2 H  pz         
    43    0.841586111942E-02  3 H  pz                34    0.713859661408E-02  2 H  s          
    40    0.713859661408E-02  3 H  s                 22    0.487187168024E-02  1 O  d  0       
    30   -0.457732844903E-02  1 O  f  2              19    0.430929458686E-02  1 O  d  2       
    28    0.149106256088E-02  1 O  f  0              17    0.139607494185E-02  1 O  d  0       
     9   -0.146085708721E-14  1 O  px                23   -0.110030355579E-14  1 O  d  1       
    12   -0.749554584642E-15  1 O  px                18    0.251870756783E-15  1 O  d  1       
    10    0.190746977894E-15  1 O  py                 6    0.186271409779E-15  1 O  px         
     7    0.176585650621E-15  1 O  py                29    0.107764314888E-15  1 O  f  1       
    42    0.937227794944E-16  3 H  py                31    0.789482339906E-16  1 O  f  3       
    20    0.700003802381E-16  1 O  d -2              21    0.166188779377E-16  1 O  d -1       
    36   -0.906879947794E-17  2 H  py                13    0.855672807211E-17  1 O  py         
    15   -0.164012969647E-17  1 O  d -2              26   -0.130436337314E-17  1 O  f -2       
    25    0.101978089545E-17  1 O  f -3              27   -0.412573888900E-18  1 O  f -1       
    16    0.285810087922E-18  1 O  d -1       

 Vector    3  Occ=1.000000D+00  E=-5.307314D-01  Symmetry=b1
              MO Center=  3.1D-15, -1.1D-17, -1.0D-01, r^2= 7.8D-01
   Bfn.  Coefficient  Atom+Function         Bfn.  Coefficient  Atom+Function  
  ----- ------------  ---------------      ----- ------------  ---------------
     6    0.384917891557      1 O  px                 9    0.296210694576      1 O  px         
    33    0.185947415008      2 H  s                 39   -0.185947415008      3 H  s          
    32    0.147581458567      2 H  s                 38   -0.147581458567      3 H  s          
    12    0.124570222326      1 O  px                34    0.681419974177E-01  2 H  s          
    40   -0.681419974177E-01  3 H  s                 23    0.246091123319E-01  1 O  d  1       
    37    0.176201933087E-01  2 H  pz                43   -0.176201933087E-01  3 H  pz         
    18    0.122931329305E-01  1 O  d  1              35   -0.838146406231E-02  2 H  px         
    41   -0.838146406231E-02  3 H  px                31   -0.477744177055E-02  1 O  f  3       
    29   -0.125210575857E-02  1 O  f  1              11   -0.105631822630E-13  1 O  pz         
     8   -0.104444172402E-13  1 O  pz                14   -0.921208053405E-14  1 O  pz         
     5    0.458112037516E-14  1 O  s                  3   -0.313915253735E-14  1 O  s          
    24    0.305078248341E-14  1 O  d  2               4   -0.234362045901E-14  1 O  s          
     2    0.160386671768E-14  1 O  s                 22    0.130119547191E-14  1 O  d  0       
     1    0.864900652385E-15  1 O  s                 30   -0.495437922139E-15  1 O  f  2       
    19   -0.481074449081E-15  1 O  d  2              26    0.354577433340E-15  1 O  f -2       
    15   -0.302993411912E-15  1 O  d -2              10   -0.267271949376E-15  1 O  py         
     7   -0.265667180497E-15  1 O  py                25   -0.152926707698E-15  1 O  f -3       
    20    0.142814896038E-15  1 O  d -2              13   -0.137816814363E-15  1 O  py         
    21   -0.135746493109E-15  1 O  d -1              28    0.116877193690E-15  1 O  f  0       
    16   -0.114004673883E-15  1 O  d -1              17    0.112325255308E-15  1 O  d  0       
    36    0.503229506789E-16  2 H  py                27   -0.163235959248E-16  1 O  f -1       
    42   -0.323022768233E-17  3 H  py         

 Vector    4  Occ=1.000000D+00  E=-3.927005D-01  Symmetry=a1
              MO Center= -2.5D-15, -1.3D-18,  1.9D-01, r^2= 7.3D-01
   Bfn.  Coefficient  Atom+Function         Bfn.  Coefficient  Atom+Function  
  ----- ------------  ---------------      ----- ------------  ---------------
     8    0.415102243289      1 O  pz                11    0.318613494773      1 O  pz         
    14    0.235493759714      1 O  pz                 5    0.231513423147      1 O  s          
     4    0.196189203735      1 O  s                  3    0.139222814315      1 O  s          
    33   -0.125688838743      2 H  s                 39   -0.125688838743      3 H  s          
     2   -0.889645766401E-01  1 O  s                 32   -0.876442103638E-01  2 H  s          
    38   -0.876442103638E-01  3 H  s                 34   -0.460490910272E-01  2 H  s          
    40   -0.460490910272E-01  3 H  s                  1   -0.372377212181E-01  1 O  s          
    22   -0.257888099361E-01  1 O  d  0              35    0.172276368496E-01  2 H  px         
    41   -0.172276368496E-01  3 H  px                37    0.960617789741E-02  2 H  pz         
    43    0.960617789741E-02  3 H  pz                17   -0.467945609112E-02  1 O  d  0       
    30    0.350487443352E-02  1 O  f  2              19   -0.262753725653E-02  1 O  d  2       
    24    0.109457061460E-02  1 O  d  2              28    0.992243306929E-03  1 O  f  0       
     6    0.107452772140E-13  1 O  px                 9    0.906756788598E-14  1 O  px         
    12    0.569830278959E-14  1 O  px                23    0.273659994243E-14  1 O  d  1       
    13    0.303957464854E-15  1 O  py                31   -0.246245294261E-15  1 O  f  3       
    29   -0.192967063775E-15  1 O  f  1              10   -0.140017394202E-15  1 O  py         
    18   -0.101494822812E-15  1 O  d  1              42   -0.868841248262E-16  3 H  py         
    36    0.714538354442E-16  2 H  py                 7   -0.314301373650E-16  1 O  py         
    21   -0.290179391098E-16  1 O  d -1              20    0.288212936030E-16  1 O  d -2       
    15    0.859130526260E-17  1 O  d -2              25    0.572437195092E-17  1 O  f -3       
    26    0.466907406660E-17  1 O  f -2              27    0.456325722533E-17  1 O  f -1       
    16    0.433236532217E-17  1 O  d -1       

 Vector    5  Occ=1.000000D+00  E=-3.162532D-01  Symmetry=b2
              MO Center=  8.1D-17, -4.6D-16,  9.0D-02, r^2= 6.7D-01
   Bfn.  Coefficient  Atom+Function         Bfn.  Coefficient  Atom+Function  
  ----- ------------  ---------------      ----- ------------  ---------------
     7    0.476983794734      1 O  py                10    0.383137133141      1 O  py         
    13    0.339025411551      1 O  py                21   -0.264767782726E-01  1 O  d -1       
    36    0.254156843279E-01  2 H  py                42    0.254156843279E-01  3 H  py         
    25    0.480888566343E-02  1 O  f -3              16   -0.436703433612E-02  1 O  d -1       
    27    0.206142081208E-02  1 O  f -1               4   -0.376403112438E-14  1 O  s          
    33    0.328790355137E-14  2 H  s                 39    0.257988275646E-14  3 H  s          
    11    0.139122839923E-14  1 O  pz                34   -0.121791344436E-14  2 H  s          
    14    0.793916378509E-15  1 O  pz                 8    0.785659783314E-15  1 O  pz         
    12    0.780238544619E-15  1 O  px                41    0.695875938318E-15  3 H  px         
    35   -0.631618713734E-15  2 H  px                40    0.515969350054E-15  3 H  s          
     2    0.386761922125E-15  1 O  s                  6    0.176639746226E-15  1 O  px         
    37    0.174500297272E-15  2 H  pz                 3    0.171423938858E-15  1 O  s          
     5   -0.167846271179E-15  1 O  s                 26    0.158495704032E-15  1 O  f -2       
    20    0.137676029717E-15  1 O  d -2               9   -0.129682498274E-15  1 O  px         
    24    0.101580197175E-15  1 O  d  2              23   -0.934571178263E-16  1 O  d  1       
    22    0.856381342930E-16  1 O  d  0              28   -0.823570245148E-16  1 O  f  0       
    29    0.746183448739E-16  1 O  f  1              30    0.508581202104E-16  1 O  f  2       
     1    0.467981551427E-16  1 O  s                 18   -0.393262368402E-16  1 O  d  1       
    43    0.346217250664E-16  3 H  pz                15    0.323642513828E-16  1 O  d -2       
    17    0.115606881564E-16  1 O  d  0              31   -0.654091088978E-17  1 O  f  3       
    38    0.597467488071E-17  3 H  s                 19   -0.487242981043E-17  1 O  d  2       
    32    0.191462856823E-17  2 H  s          

 Vector    6  Occ=0.000000D+00  E= 1.241944D-02  Symmetry=a1
              MO Center=  1.5D-16, -3.2D-16, -6.8D-01, r^2= 3.4D+00
   Bfn.  Coefficient  Atom+Function         Bfn.  Coefficient  Atom+Function  
  ----- ------------  ---------------      ----- ------------  ---------------
     5     1.15663292902      1 O  s                 34   -0.931460232687      2 H  s          
    40   -0.931460232687      3 H  s                 14   -0.335620161288      1 O  pz         
     3    0.189261778153      1 O  s                  8   -0.164514833091      1 O  pz         
    11   -0.118782334296      1 O  pz                33   -0.935821121060E-01  2 H  s          
    39   -0.935821121060E-01  3 H  s                  2   -0.838236014223E-01  1 O  s          
    32   -0.388112010489E-01  2 H  s                 38   -0.388112010489E-01  3 H  s          
     1   -0.332745069731E-01  1 O  s                  4   -0.318602790504E-01  1 O  s          
    35   -0.270495172783E-01  2 H  px                41    0.270495172783E-01  3 H  px         
    37    0.182953303543E-01  2 H  pz                43    0.182953303543E-01  3 H  pz         
    22    0.874535922013E-02  1 O  d  0              24   -0.571558195117E-02  1 O  d  2       
    19   -0.176490736364E-02  1 O  d  2              17    0.155973116144E-02  1 O  d  0       
    30   -0.127911537925E-02  1 O  f  2              28   -0.250644239805E-03  1 O  f  0       
     7    0.646517335169E-15  1 O  py                10    0.598827814964E-15  1 O  py         
    13    0.345990480800E-15  1 O  py                12    0.326547979088E-15  1 O  px         
    23    0.292347616091E-15  1 O  d  1               6    0.244597718704E-15  1 O  px         
     9   -0.126953744852E-15  1 O  px                42    0.403851113405E-16  3 H  py         
    18   -0.353425545967E-16  1 O  d  1              21   -0.320651433386E-16  1 O  d -1       
    36    0.276938302139E-16  2 H  py                29   -0.209576388384E-16  1 O  f  1       
    31   -0.204470202203E-16  1 O  f  3              20    0.132910857109E-16  1 O  d -2       
    25    0.655448631200E-17  1 O  f -3              16   -0.560605558073E-17  1 O  d -1       
    27    0.357050134768E-17  1 O  f -1              15   -0.109058278666E-18  1 O  d -2       
    26   -0.216356345813E-19  1 O  f -2       

 Vector    7  Occ=0.000000D+00  E= 8.793148D-02  Symmetry=b1
              MO Center=  8.5D-17,  9.2D-32, -7.0D-01, r^2= 4.0D+00
   Bfn.  Coefficient  Atom+Function         Bfn.  Coefficient  Atom+Function  
  ----- ------------  ---------------      ----- ------------  ---------------
    34     1.62677263273      2 H  s                 40    -1.62677263273      3 H  s          
    12   -0.684163108284      1 O  px                 6   -0.256451492743      1 O  px         
     9   -0.123897154705      1 O  px                32    0.361139672157E-01  2 H  s          
    38   -0.361139672157E-01  3 H  s                 35    0.336192260094E-01  2 H  px         
    41    0.336192260094E-01  3 H  px                37   -0.321114007255E-01  2 H  pz         
    43    0.321114007255E-01  3 H  pz                33    0.281511396452E-01  2 H  s          
    39   -0.281511396452E-01  3 H  s                 23    0.204267246667E-01  1 O  d  1       
    29   -0.269363302996E-02  1 O  f  1              18    0.145783259432E-02  1 O  d  1       
    31    0.943955531574E-03  1 O  f  3               8    0.405400375107E-15  1 O  pz         
    11    0.310727776120E-15  1 O  pz                14    0.252310596816E-15  1 O  pz         
     2   -0.131545203554E-15  1 O  s                  7    0.970258679055E-16  1 O  py         
     4    0.954479426744E-16  1 O  s                  1   -0.832707333777E-16  1 O  s          
    10    0.779360080578E-16  1 O  py                13    0.689630028543E-16  1 O  py         
     5    0.310696585137E-16  1 O  s                  3    0.282707233983E-16  1 O  s          
    22   -0.248604180354E-16  1 O  d  0              21   -0.538578547029E-17  1 O  d -1       
    36    0.516994257991E-17  2 H  py                42    0.516994257991E-17  3 H  py         
    17   -0.462078163389E-17  1 O  d  0              30    0.410624237678E-17  1 O  f  2       
    19   -0.299479720853E-17  1 O  d  2              25    0.978201587357E-18  1 O  f -3       
    16   -0.888322205728E-18  1 O  d -1              28    0.641546178589E-18  1 O  f  0       
    27    0.419324819037E-18  1 O  f -1              24   -0.171780115850E-18  1 O  d  2       
    20    0.160217745509E-30  1 O  d -2              26   -0.241513863443E-31  1 O  f -2       
    15    0.821718222837E-32  1 O  d -2       

 Vector    8  Occ=0.000000D+00  E= 3.526105D-01  Symmetry=b1
              MO Center= -7.0D-16,  5.4D-32,  9.6D-02, r^2= 2.5D+00
   Bfn.  Coefficient  Atom+Function         Bfn.  Coefficient  Atom+Function  
  ----- ------------  ---------------      ----- ------------  ---------------
    33     1.43839579973      2 H  s                 39    -1.43839579973      3 H  s          
    12    -1.15625739147      1 O  px                34   -0.577864450012      2 H  s          
    40    0.577864450012      3 H  s                  9   -0.345834306383      1 O  px         
    32    0.123999766781      2 H  s                 38   -0.123999766781      3 H  s          
    23   -0.123264588986      1 O  d  1               6   -0.118112833489      1 O  px         
    35   -0.870564852445E-01  2 H  px                41   -0.870564852445E-01  3 H  px         
    37    0.440552685405E-01  2 H  pz                43   -0.440552685405E-01  3 H  pz         
    18    0.321792679017E-01  1 O  d  1              31    0.107441684582E-01  1 O  f  3       
    29    0.689716489816E-02  1 O  f  1               8    0.512577655653E-15  1 O  pz         
    11    0.393059868642E-15  1 O  pz                14    0.304174983355E-15  1 O  pz         
     4    0.280431985838E-15  1 O  s                  5    0.253362453202E-15  1 O  s          
     3    0.198066824440E-15  1 O  s                  2   -0.554642085213E-16  1 O  s          
    22   -0.318589007585E-16  1 O  d  0               7    0.291242790002E-16  1 O  py         
    10    0.233940710022E-16  1 O  py                13    0.207006417894E-16  1 O  py         
    17   -0.572618985582E-17  1 O  d  0               1   -0.472283938475E-17  1 O  s          
    30    0.402205886932E-17  1 O  f  2              19   -0.277322486902E-17  1 O  d  2       
    24    0.238917405077E-17  1 O  d  2              21   -0.161665256965E-17  1 O  d -1       
    36    0.155186295534E-17  2 H  py                42    0.155186295534E-17  3 H  py         
    28    0.135401489403E-17  1 O  f  0              25    0.293627014771E-18  1 O  f -3       
    16   -0.266647898341E-18  1 O  d -1              27    0.125868835652E-18  1 O  f -1       
    26   -0.183769252660E-30  1 O  f -2              15    0.177226077109E-30  1 O  d -2       
    20   -0.325056625682E-31  1 O  d -2       

 Vector    9  Occ=0.000000D+00  E= 4.057229D-01  Symmetry=a1
              MO Center=  2.7D-16,  4.3D-17, -1.2D-01, r^2= 2.6D+00
   Bfn.  Coefficient  Atom+Function         Bfn.  Coefficient  Atom+Function  
  ----- ------------  ---------------      ----- ------------  ---------------
    33     1.46473115945      2 H  s                 39     1.46473115945      3 H  s          
    14     1.42035394737      1 O  pz                 4   -0.874989886439      1 O  s          
     5   -0.511201886778      1 O  s                 34   -0.407608767223      2 H  s          
    40   -0.407608767223      3 H  s                 32    0.851848744277E-01  2 H  s          
    38    0.851848744277E-01  3 H  s                  2    0.800314975271E-01  1 O  s          
    35   -0.654199197346E-01  2 H  px                41    0.654199197346E-01  3 H  px         
    37    0.638631091159E-01  2 H  pz                43    0.638631091159E-01  3 H  pz         
     8   -0.574704385655E-01  1 O  pz                24   -0.560290828875E-01  1 O  d  2       
    22   -0.369903323563E-01  1 O  d  0               1    0.365620209164E-01  1 O  s          
    11   -0.348980528716E-01  1 O  pz                 3    0.224578082435E-01  1 O  s          
    19    0.182985698595E-01  1 O  d  2              30    0.143028492110E-01  1 O  f  2       
    28   -0.682435694693E-02  1 O  f  0              17    0.602051855648E-02  1 O  d  0       
    10   -0.864024529180E-15  1 O  py                 9    0.811933132244E-15  1 O  px         
     7   -0.634444255293E-15  1 O  py                13    0.519745233294E-15  1 O  py         
     6   -0.219004158787E-15  1 O  px                23    0.188982928012E-15  1 O  d  1       
    12    0.824970634389E-16  1 O  px                20   -0.468075059696E-16  1 O  d -2       
    42   -0.397613609784E-16  3 H  py                36   -0.212828327187E-16  2 H  py         
    18    0.192878794851E-16  1 O  d  1              31   -0.140254953421E-16  1 O  f  3       
    29   -0.111462875628E-16  1 O  f  1              21    0.108423515017E-16  1 O  d -1       
    16    0.825822896936E-17  1 O  d -1              25   -0.686245820861E-17  1 O  f -3       
    27   -0.252291171305E-17  1 O  f -1              15   -0.136852685512E-17  1 O  d -2       
    26   -0.625665486779E-18  1 O  f -2       

 Vector   10  Occ=0.000000D+00  E= 4.245290D-01  Symmetry=b2
              MO Center= -1.8D-16, -3.2D-15,  1.2D-01, r^2= 2.2D+00
   Bfn.  Coefficient  Atom+Function         Bfn.  Coefficient  Atom+Function  
  ----- ------------  ---------------      ----- ------------  ---------------
    13     1.23310193132      1 O  py                10   -0.700822104434      1 O  py         
     7   -0.318202612105      1 O  py                21   -0.734300120603E-02  1 O  d -1       
    16    0.667698393484E-02  1 O  d -1              36   -0.324513595718E-02  2 H  py         
    42   -0.324513595718E-02  3 H  py                25   -0.184298389669E-02  1 O  f -3       
    27   -0.619031362067E-03  1 O  f -1              40   -0.965330172558E-14  3 H  s          
    12   -0.640446972224E-14  1 O  px                14   -0.628073307252E-14  1 O  pz         
    39    0.498608965089E-14  3 H  s                 11    0.458249281003E-14  1 O  pz         
     5    0.406695055663E-14  1 O  s                  9    0.399905392535E-14  1 O  px         
    20   -0.357796183110E-14  1 O  d -2               4   -0.323840619668E-14  1 O  s          
     8    0.179252482418E-14  1 O  pz                34    0.161786106543E-14  2 H  s          
    33    0.132824817733E-14  2 H  s                  6    0.899934586412E-15  1 O  px         
    43    0.868124956806E-15  3 H  pz                41    0.537702410544E-15  3 H  px         
    38    0.406642899572E-15  3 H  s                 37   -0.384256886727E-15  2 H  pz         
    23    0.304859065139E-15  1 O  d  1              32    0.238973407640E-15  2 H  s          
    35    0.239524438970E-15  2 H  px                 3    0.210526979530E-15  1 O  s          
    18    0.208087060981E-15  1 O  d  1              31   -0.203865897640E-15  1 O  f  3       
    26    0.157986629113E-15  1 O  f -2               2    0.130843802221E-15  1 O  s          
    19    0.707640236683E-16  1 O  d  2              30    0.683451915453E-16  1 O  f  2       
    15    0.655633704872E-16  1 O  d -2               1    0.623895160209E-16  1 O  s          
    22    0.388959495515E-16  1 O  d  0              29    0.353407510145E-16  1 O  f  1       
    28   -0.312731857540E-16  1 O  f  0              17   -0.791111171999E-17  1 O  d  0       
    24    0.664562999988E-17  1 O  d  2       

 Vector   11  Occ=0.000000D+00  E= 4.331878D-01  Symmetry=a1
              MO Center=  4.5D-16,  4.8D-15,  1.9D-01, r^2= 2.3D+00
   Bfn.  Coefficient  Atom+Function         Bfn.  Coefficient  Atom+Function  
  ----- ------------  ---------------      ----- ------------  ---------------
    33    0.807539273693      2 H  s                 39    0.807539273693      3 H  s          
    11    0.759320788132      1 O  pz                14   -0.712656889940      1 O  pz         
    34   -0.568752089144      2 H  s                 40   -0.568752089144      3 H  s          
     8    0.336776228634      1 O  pz                 4   -0.183187610903      1 O  s          
     5   -0.176006722650      1 O  s                 32    0.822250869262E-01  2 H  s          
    38    0.822250869262E-01  3 H  s                 37    0.286258493207E-01  2 H  pz         
    43    0.286258493207E-01  3 H  pz                 2    0.142929250652E-01  1 O  s          
    19    0.889105427046E-02  1 O  d  2              30    0.789566472732E-02  1 O  f  2       
    35   -0.786894115084E-02  2 H  px                41    0.786894115084E-02  3 H  px         
     3    0.725926987831E-02  1 O  s                 17   -0.618787622186E-02  1 O  d  0       
     1    0.601739275105E-02  1 O  s                 24   -0.559487631644E-02  1 O  d  2       
    22   -0.535113450591E-02  1 O  d  0              28   -0.335479729320E-02  1 O  f  0       
    13   -0.727621158647E-14  1 O  py                10    0.350590907627E-14  1 O  py         
     7    0.126057851797E-14  1 O  py                 6    0.363881939625E-15  1 O  px         
     9    0.255826144458E-15  1 O  px                21    0.700653818049E-16  1 O  d -1       
    16   -0.326185382333E-16  1 O  d -1              18    0.150681634541E-16  1 O  d  1       
    23    0.122879137718E-16  1 O  d  1              12    0.100482650311E-16  1 O  px         
    36   -0.960986617549E-17  2 H  py                42   -0.960986617548E-17  3 H  py         
    25    0.506420950687E-17  1 O  f -3              31   -0.363500510109E-17  1 O  f  3       
    27    0.121324378898E-17  1 O  f -1              29   -0.568397851051E-18  1 O  f  1       
    20    0.198389419841E-28  1 O  d -2              26   -0.720043923428E-30  1 O  f -2       
    15   -0.713275327703E-30  1 O  d -2       

 Vector   12  Occ=0.000000D+00  E= 5.662133D-01  Symmetry=b1
              MO Center= -1.7D-15, -3.0D-18, -9.2D-02, r^2= 3.0D+00
   Bfn.  Coefficient  Atom+Function         Bfn.  Coefficient  Atom+Function  
  ----- ------------  ---------------      ----- ------------  ---------------
    12     2.03471929398      1 O  px                34    -1.61281924676      2 H  s          
    40     1.61281924676      3 H  s                  9   -0.751975919101      1 O  px         
     6   -0.351538433674      1 O  px                33    0.886688012527E-01  2 H  s          
    39   -0.886688012527E-01  3 H  s                 32    0.610860780052E-01  2 H  s          
    38   -0.610860780052E-01  3 H  s                 23    0.576315310335E-01  1 O  d  1       
    37   -0.302718544056E-01  2 H  pz                43    0.302718544056E-01  3 H  pz         
    35    0.299122569905E-01  2 H  px                41    0.299122569905E-01  3 H  px         
    18   -0.108304123132E-01  1 O  d  1              29   -0.235520724456E-02  1 O  f  1       
    31   -0.642849925566E-03  1 O  f  3               5   -0.675947047535E-14  1 O  s          
    13    0.403104781988E-14  1 O  py                 8    0.344247380141E-14  1 O  pz         
    10   -0.281546083053E-14  1 O  py                24   -0.268261923486E-14  1 O  d  2       
    14    0.259138608432E-14  1 O  pz                 3   -0.188806418719E-14  1 O  s          
    22    0.151083484308E-14  1 O  d  0               4   -0.113183179245E-14  1 O  s          
     7   -0.874835552546E-15  1 O  py                 2    0.609867406365E-15  1 O  s          
    11   -0.422933186867E-15  1 O  pz                 1    0.216862983638E-15  1 O  s          
    30    0.179043066630E-15  1 O  f  2              19    0.103361091831E-15  1 O  d  2       
    42    0.553421494248E-16  3 H  py                28   -0.374924910663E-16  1 O  f  0       
    26   -0.266772705965E-16  1 O  f -2              36    0.228875325921E-16  2 H  py         
    21    0.210136755491E-16  1 O  d -1              25   -0.194998631701E-16  1 O  f -3       
    16    0.171224928264E-16  1 O  d -1              20    0.130316454024E-16  1 O  d -2       
    15   -0.383656965356E-17  1 O  d -2              17    0.338904752438E-17  1 O  d  0       
    27    0.117863352655E-17  1 O  f -1       

 Vector   13  Occ=0.000000D+00  E= 5.948127D-01  Symmetry=a1
              MO Center=  2.2D-15, -1.4D-15, -3.5D-01, r^2= 2.6D+00
   Bfn.  Coefficient  Atom+Function         Bfn.  Coefficient  Atom+Function  
  ----- ------------  ---------------      ----- ------------  ---------------
     5     4.83936973020      1 O  s                  4    -2.24948030938      1 O  s          
    14    -1.28920877809      1 O  pz                34   -0.953170133755      2 H  s          
    40   -0.953170133755      3 H  s                 33   -0.945729322628      2 H  s          
    39   -0.945729322628      3 H  s                  2    0.105872509873      1 O  s          
     3    0.998086631821E-01  1 O  s                  8    0.711551685112E-01  1 O  pz         
    37   -0.668820067543E-01  2 H  pz                43   -0.668820067543E-01  3 H  pz         
    35    0.582301242307E-01  2 H  px                41   -0.582301242307E-01  3 H  px         
     1    0.511788038885E-01  1 O  s                 24    0.473643511418E-01  1 O  d  2       
    22    0.274634090281E-01  1 O  d  0              32    0.209170173161E-01  2 H  s          
    38    0.209170173161E-01  3 H  s                 19   -0.171133924579E-01  1 O  d  2       
    30   -0.113673348569E-01  1 O  f  2              11   -0.678607496872E-02  1 O  pz         
    28    0.579002207359E-02  1 O  f  0              17   -0.397451382704E-02  1 O  d  0       
    12    0.162382511237E-14  1 O  px                13   -0.140310210132E-14  1 O  py         
     9   -0.101672055606E-14  1 O  px                 6   -0.583864315056E-15  1 O  px         
    10    0.502841161675E-15  1 O  py                 7    0.732789342190E-16  1 O  py         
    23   -0.247595684110E-16  1 O  d  1              21    0.208684263312E-16  1 O  d -1       
    36   -0.976704815023E-17  2 H  py                42   -0.976704815023E-17  3 H  py         
    18   -0.925858210957E-17  1 O  d  1              31    0.719967652038E-17  1 O  f  3       
    16   -0.442404711577E-17  1 O  d -1              29    0.278111995503E-17  1 O  f  1       
    25   -0.622482800877E-18  1 O  f -3              27   -0.437359517991E-18  1 O  f -1       
    20    0.350172546990E-29  1 O  d -2              26   -0.570486138671E-30  1 O  f -2       
    15    0.188116445945E-30  1 O  d -2       

 Vector   14  Occ=0.000000D+00  E= 1.154480D+00  Symmetry=a1
              MO Center= -4.2D-15,  1.2D-16, -1.3D-01, r^2= 1.0D+00
   Bfn.  Coefficient  Atom+Function         Bfn.  Coefficient  Atom+Function  
  ----- ------------  ---------------      ----- ------------  ---------------
     5    0.894710941977      1 O  s                 33   -0.578817352441      2 H  s          
    39   -0.578817352441      3 H  s                 14   -0.569442986556      1 O  pz         
    22   -0.494818578743      1 O  d  0              35    0.308465634114      2 H  px         
    41   -0.308465634114      3 H  px                37    0.304615100595      2 H  pz         
    43    0.304615100595      3 H  pz                11   -0.153859171085      1 O  pz         
    24    0.144094564465      1 O  d  2               8   -0.798760046373E-01  1 O  pz         
     4   -0.729709082850E-01  1 O  s                 34   -0.469339979784E-01  2 H  s          
    40   -0.469339979784E-01  3 H  s                 32    0.392402198786E-01  2 H  s          
    38    0.392402198786E-01  3 H  s                  3   -0.382755820470E-01  1 O  s          
    17   -0.102663241256E-01  1 O  d  0               2    0.923519657313E-02  1 O  s          
    30   -0.788663000252E-02  1 O  f  2              19    0.631822141565E-02  1 O  d  2       
    28    0.356271758570E-02  1 O  f  0               1    0.352859431947E-02  1 O  s          
     9    0.124483727001E-13  1 O  px                23    0.120247875436E-13  1 O  d  1       
    12    0.924025082241E-14  1 O  px                20    0.511380673790E-14  1 O  d -2       
    36    0.356449648475E-14  2 H  py                42   -0.310960813652E-14  3 H  py         
     6    0.104291829290E-14  1 O  px                29   -0.814947385750E-15  1 O  f  1       
    18   -0.720950828738E-15  1 O  d  1              31   -0.552741383376E-15  1 O  f  3       
    21   -0.341499150802E-15  1 O  d -1              10    0.207338895379E-15  1 O  py         
     7    0.177972057903E-15  1 O  py                25    0.128746539763E-15  1 O  f -3       
    16    0.671007967538E-16  1 O  d -1              15   -0.473128542226E-16  1 O  d -2       
    27    0.401263563646E-16  1 O  f -1              26    0.332941335874E-16  1 O  f -2       
    13    0.753093171822E-17  1 O  py         

 Vector   15  Occ=0.000000D+00  E= 1.186474D+00  Symmetry=a2
              MO Center= -1.8D-14,  2.1D-16, -2.0D-01, r^2= 9.5D-01
   Bfn.  Coefficient  Atom+Function         Bfn.  Coefficient  Atom+Function  
  ----- ------------  ---------------      ----- ------------  ---------------
    20    0.543967191074      1 O  d -2              36    0.424870263152      2 H  py         
    42   -0.424870263153      3 H  py                26    0.939522340088E-02  1 O  f -2       
    15    0.818729221992E-02  1 O  d -2              13    0.964905837237E-14  1 O  py         
     5   -0.836932147787E-14  1 O  s                 21    0.680419264349E-14  1 O  d -1       
    14    0.540453723964E-14  1 O  pz                39    0.535724483335E-14  3 H  s          
    33    0.441381539281E-14  2 H  s                 22    0.380984426422E-14  1 O  d  0       
     7    0.359139450741E-14  1 O  py                43   -0.316473310275E-14  3 H  pz         
    35   -0.274043148277E-14  2 H  px                37   -0.274680160061E-14  2 H  pz         
    41    0.193039930385E-14  3 H  px                24   -0.190854783473E-14  1 O  d  2       
    10   -0.177291129840E-14  1 O  py                 4    0.128327777141E-14  1 O  s          
    34    0.833631890309E-15  2 H  s                  8    0.825914969689E-15  1 O  pz         
    11    0.648606571009E-15  1 O  pz                23    0.502504660579E-15  1 O  d  1       
     3    0.456182224384E-15  1 O  s                 25   -0.422302160156E-15  1 O  f -3       
     6   -0.392847641545E-15  1 O  px                16    0.261478650812E-15  1 O  d -1       
    17    0.262317987159E-15  1 O  d  0              31    0.251419876364E-15  1 O  f  3       
    40    0.237930466498E-15  3 H  s                 38   -0.235276718523E-15  3 H  s          
    12    0.232502365949E-15  1 O  px                27   -0.120377979522E-15  1 O  f -1       
    29    0.115509095649E-15  1 O  f  1               2   -0.114008957613E-15  1 O  s          
    28   -0.107158019802E-15  1 O  f  0              32    0.835470896167E-16  2 H  s          
     9    0.696691910150E-16  1 O  px                19    0.625078663411E-16  1 O  d  2       
     1   -0.571138202203E-16  1 O  s                 30    0.148141128575E-16  1 O  f  2       
    18   -0.108804698860E-16  1 O  d  1       

 Vector   16  Occ=0.000000D+00  E= 1.289172D+00  Symmetry=b2
              MO Center=  1.7D-14,  4.1D-17, -6.5D-02, r^2= 9.6D-01
   Bfn.  Coefficient  Atom+Function         Bfn.  Coefficient  Atom+Function  
  ----- ------------  ---------------      ----- ------------  ---------------
    21    0.669008826228      1 O  d -1              36   -0.383967381850      2 H  py         
    42   -0.383967381850      3 H  py                13    0.214288849885      1 O  py         
     7    0.995393689881E-01  1 O  py                10    0.477965720025E-01  1 O  py         
    25    0.111855001175E-01  1 O  f -3              27   -0.771114114574E-02  1 O  f -1       
    16    0.119631615481E-02  1 O  d -1              20   -0.471018261791E-14  1 O  d -2       
    33    0.368965366104E-14  2 H  s                  5   -0.193561626601E-14  1 O  s          
     9   -0.155490491437E-14  1 O  px                35   -0.120382603591E-14  2 H  px         
    24   -0.110193023921E-14  1 O  d  2              11    0.102449885992E-14  1 O  pz         
    22   -0.945540385782E-15  1 O  d  0              41   -0.782756860933E-15  3 H  px         
    34   -0.776487309117E-15  2 H  s                 14    0.742699906766E-15  1 O  pz         
    32   -0.553559905971E-15  2 H  s                 39    0.526377942744E-15  3 H  s          
    37    0.514529685242E-15  2 H  pz                 8   -0.503295182936E-15  1 O  pz         
    23   -0.452132406994E-15  1 O  d  1               4   -0.390518404052E-15  1 O  s          
    31    0.378390506479E-15  1 O  f  3              40    0.314000563465E-15  3 H  s          
    43   -0.301248766683E-15  3 H  pz                15   -0.295508338899E-15  1 O  d -2       
    12    0.286436595160E-15  1 O  px                 6    0.239464841586E-15  1 O  px         
    18    0.205542698075E-15  1 O  d  1               3    0.189347346756E-15  1 O  s          
    38   -0.997445488438E-16  3 H  s                 17    0.907003556321E-16  1 O  d  0       
    29    0.637999903741E-16  1 O  f  1              28   -0.512231329031E-16  1 O  f  0       
    30    0.425345533371E-16  1 O  f  2               2   -0.329356430907E-16  1 O  s          
    26    0.152163867138E-16  1 O  f -2               1    0.108275303267E-16  1 O  s          
    19   -0.907551567286E-17  1 O  d  2       

 Vector   17  Occ=0.000000D+00  E= 1.523838D+00  Symmetry=b1
              MO Center=  5.5D-14,  1.2D-16, -1.2D-01, r^2= 1.8D+00
   Bfn.  Coefficient  Atom+Function         Bfn.  Coefficient  Atom+Function  
  ----- ------------  ---------------      ----- ------------  ---------------
    33     2.15531992305      2 H  s                 39    -2.15531992305      3 H  s          
    23    -1.20550694976      1 O  d  1              12   -0.922590062288      1 O  px         
     9   -0.892466657926      1 O  px                34   -0.531374028133      2 H  s          
    40    0.531374028133      3 H  s                 37    0.416074771116      2 H  pz         
    43   -0.416074771116      3 H  pz                32   -0.381933659665      2 H  s          
    38    0.381933659665      3 H  s                 35   -0.165766207979      2 H  px         
    41   -0.165766207979      3 H  px                 6    0.117050856809      1 O  px         
    29    0.525226615832E-01  1 O  f  1              31    0.413152791494E-01  1 O  f  3       
    18    0.103094658688E-01  1 O  d  1               5   -0.157453448601E-12  1 O  s          
     4   -0.129232991910E-12  1 O  s                 24   -0.104906990186E-12  1 O  d  2       
    14    0.812905667172E-13  1 O  pz                11    0.808245318509E-13  1 O  pz         
     3    0.587866113289E-13  1 O  s                 22   -0.354610653581E-13  1 O  d  0       
     8   -0.147476925005E-13  1 O  pz                30    0.833638060536E-14  1 O  f  2       
     2   -0.575257885176E-14  1 O  s                 28   -0.336463606200E-14  1 O  f  0       
    19    0.211162883351E-14  1 O  d  2               1   -0.127190638317E-14  1 O  s          
    20    0.117210981363E-14  1 O  d -2              36   -0.778227329024E-15  2 H  py         
    13    0.657624556650E-15  1 O  py                10   -0.537979778984E-15  1 O  py         
    21   -0.507470998708E-15  1 O  d -1              17    0.449881524246E-15  1 O  d  0       
    26    0.313877076501E-15  1 O  f -2              42   -0.283862460250E-15  3 H  py         
    27   -0.223728272872E-15  1 O  f -1               7    0.190252519965E-15  1 O  py         
    16    0.949818311288E-16  1 O  d -1              15   -0.375896897420E-16  1 O  d -2       
    25   -0.208011481502E-16  1 O  f -3       

 Vector   18  Occ=0.000000D+00  E= 1.633473D+00  Symmetry=a1
              MO Center= -5.6D-14,  1.1D-16, -1.4D-01, r^2= 1.4D+00
   Bfn.  Coefficient  Atom+Function         Bfn.  Coefficient  Atom+Function  
  ----- ------------  ---------------      ----- ------------  ---------------
    33     2.04258567927      2 H  s                 39     2.04258567927      3 H  s          
     5    -1.81680421031      1 O  s                 24    -1.09924179959      1 O  d  2       
    14    0.942632604036      1 O  pz                 4   -0.657747032931      1 O  s          
    11    0.497638040536      1 O  pz                 3    0.385084721048      1 O  s          
    32   -0.350602986055      2 H  s                 38   -0.350602986055      3 H  s          
    22   -0.326703003536      1 O  d  0              35   -0.212113160888      2 H  px         
    41    0.212113160888      3 H  px                34   -0.192637701311      2 H  s          
    40   -0.192637701311      3 H  s                 37    0.136478409842      2 H  pz         
    43    0.136478409842      3 H  pz                 8   -0.100587883049      1 O  pz         
    30    0.616645870203E-01  1 O  f  2               2   -0.514889311115E-01  1 O  s          
    28   -0.193804231632E-01  1 O  f  0               1   -0.154393479441E-01  1 O  s          
    19    0.423327275175E-02  1 O  d  2              17    0.413086586613E-02  1 O  d  0       
    23    0.815119165894E-13  1 O  d  1              12    0.682865413292E-13  1 O  px         
     9    0.447127815572E-13  1 O  px                 6   -0.143395519798E-13  1 O  px         
    29   -0.235044680121E-14  1 O  f  1              20   -0.144097358346E-14  1 O  d -2       
    31   -0.129337739969E-14  1 O  f  3              21   -0.116546761063E-14  1 O  d -1       
    36    0.716526664391E-15  2 H  py                42   -0.376696847077E-15  3 H  py         
    18   -0.238349427074E-15  1 O  d  1              16    0.101718265422E-15  1 O  d -1       
     7    0.872293815638E-16  1 O  py                25   -0.540749680365E-16  1 O  f -3       
    10   -0.496908936608E-16  1 O  py                27   -0.368644964046E-16  1 O  f -1       
    13    0.366641801778E-16  1 O  py                26    0.236830348961E-16  1 O  f -2       
    15   -0.143833418334E-16  1 O  d -2       

 Vector   19  Occ=0.000000D+00  E= 1.745618D+00  Symmetry=b1
              MO Center=  1.2D-14,  2.0D-17, -4.5D-01, r^2= 1.2D+00
   Bfn.  Coefficient  Atom+Function         Bfn.  Coefficient  Atom+Function  
  ----- ------------  ---------------      ----- ------------  ---------------
    35    0.556146451310      2 H  px                41    0.556146451310      3 H  px         
    37    0.540882720373      2 H  pz                43   -0.540882720373      3 H  pz         
    23    0.434296451973      1 O  d  1              33   -0.404345393686      2 H  s          
    39    0.404345393686      3 H  s                 12   -0.373776246743      1 O  px         
    34    0.344970160740      2 H  s                 40   -0.344970160740      3 H  s          
     9    0.248025270878      1 O  px                 6   -0.162267778961      1 O  px         
    32    0.112142081061      2 H  s                 38   -0.112142081061      3 H  s          
    29   -0.225553682746E-01  1 O  f  1              18   -0.113214210392E-01  1 O  d  1       
    31   -0.112901972569E-01  1 O  f  3               4    0.279439414762E-13  1 O  s          
    11   -0.139101535943E-13  1 O  pz                 3   -0.129310586413E-13  1 O  s          
    22    0.980381220385E-14  1 O  d  0              14   -0.782080927520E-14  1 O  pz         
     5    0.640294767997E-14  1 O  s                 36   -0.298798267790E-14  2 H  py         
    21   -0.227006576652E-14  1 O  d -1              13    0.211322569220E-14  1 O  py         
     8    0.189314520275E-14  1 O  pz                42   -0.184405301558E-14  3 H  py         
     7    0.154777969735E-14  1 O  py                10   -0.147607967103E-14  1 O  py         
     2    0.128840631830E-14  1 O  s                 30   -0.871680260180E-15  1 O  f  2       
    20    0.631687290838E-15  1 O  d -2               1    0.306159882311E-15  1 O  s          
    24    0.266316966897E-15  1 O  d  2              16   -0.260185828971E-15  1 O  d -1       
    25    0.242798741877E-15  1 O  f -3              17   -0.169568078932E-15  1 O  d  0       
    26   -0.165624377812E-15  1 O  f -2              27   -0.153186329258E-15  1 O  f -1       
    19   -0.116735234744E-15  1 O  d  2              28    0.917412932405E-16  1 O  f  0       
    15    0.748321003683E-16  1 O  d -2       

 Vector   20  Occ=0.000000D+00  E= 1.980117D+00  Symmetry=a1
              MO Center=  4.8D-15, -4.5D-16, -3.3D-01, r^2= 1.6D+00
   Bfn.  Coefficient  Atom+Function         Bfn.  Coefficient  Atom+Function  
  ----- ------------  ---------------      ----- ------------  ---------------
     4     2.53124236093      1 O  s                 33    -1.91936111715      2 H  s          
    39    -1.91936111715      3 H  s                 11    -1.33553478220      1 O  pz         
     3   -0.807343276949      1 O  s                 32    0.670660615987      2 H  s          
    38    0.670660615987      3 H  s                 37   -0.584155995777      2 H  pz         
    43   -0.584155995777      3 H  pz                35    0.561408921686      2 H  px         
    41   -0.561408921686      3 H  px                34    0.498829514694      2 H  s          
    40    0.498829514694      3 H  s                  8    0.410528052771      1 O  pz         
    22   -0.225836838072      1 O  d  0              30   -0.140683143525      1 O  f  2       
     5   -0.946729255492E-01  1 O  s                 28    0.709784059205E-01  1 O  f  0       
     2    0.631697466699E-01  1 O  s                 14    0.348321140414E-01  1 O  pz         
     1    0.145910841448E-01  1 O  s                 24   -0.139734389115E-01  1 O  d  2       
    19   -0.379390255930E-02  1 O  d  2              17   -0.105399793581E-02  1 O  d  0       
     9    0.169203619965E-13  1 O  px                42    0.698785993485E-14  3 H  py         
    20    0.677174985506E-14  1 O  d -2              23    0.571107164061E-14  1 O  d  1       
     6    0.519587642037E-14  1 O  px                36   -0.359016494378E-14  2 H  py         
    21    0.199730677269E-14  1 O  d -1              31   -0.134783867171E-14  1 O  f  3       
    12    0.944411294961E-15  1 O  px                13   -0.677772374548E-15  1 O  py         
     7   -0.633638732401E-15  1 O  py                29   -0.554311724018E-15  1 O  f  1       
    10    0.333105528835E-15  1 O  py                18    0.248186287478E-15  1 O  d  1       
    25    0.180262971389E-15  1 O  f -3              15   -0.818332133763E-16  1 O  d -2       
    16   -0.445469821216E-16  1 O  d -1              27    0.220271370519E-16  1 O  f -1       
    26   -0.130905382955E-16  1 O  f -2       

 Vector   21  Occ=0.000000D+00  E= 2.051420D+00  Symmetry=b2
              MO Center=  1.0D-13,  7.2D-16, -1.3D-01, r^2= 1.2D+00
   Bfn.  Coefficient  Atom+Function         Bfn.  Coefficient  Atom+Function  
  ----- ------------  ---------------      ----- ------------  ---------------
    21    0.884358548111      1 O  d -1              36    0.750870065020      2 H  py         
    42    0.750870065020      3 H  py                13   -0.484248462226      1 O  py         
     7   -0.323858021317      1 O  py                10    0.172850809229      1 O  py         
    25    0.130193178157E-01  1 O  f -3              16   -0.910421096709E-02  1 O  d -1       
    27   -0.847814566541E-02  1 O  f -1              20   -0.164751985094E-12  1 O  d -2       
    39    0.872280265098E-14  3 H  s                  4   -0.650230718456E-14  1 O  s          
    41    0.468552065475E-14  3 H  px                 9    0.443941958864E-14  1 O  px         
    11    0.359670161366E-14  1 O  pz                40   -0.352919269757E-14  3 H  s          
    33    0.305783981482E-14  2 H  s                 12   -0.300764187032E-14  1 O  px         
    15    0.272369214023E-14  1 O  d -2              38   -0.259274585393E-14  3 H  s          
    37    0.237865403514E-14  2 H  pz                 3    0.194980551020E-14  1 O  s          
     6   -0.175044233649E-14  1 O  px                 5   -0.131010092032E-14  1 O  s          
    34    0.119000603329E-14  2 H  s                 35    0.100391235311E-14  2 H  px         
     8   -0.820222303096E-15  1 O  pz                14    0.719241624022E-15  1 O  pz         
    32   -0.668123360780E-15  2 H  s                 23    0.594505730676E-15  1 O  d  1       
    43    0.582279401010E-15  3 H  pz                24   -0.513088396971E-15  1 O  d  2       
    30    0.377959654527E-15  1 O  f  2              29   -0.353130684187E-15  1 O  f  1       
    28   -0.253133831022E-15  1 O  f  0              31   -0.251915132339E-15  1 O  f  3       
    22    0.140554099864E-15  1 O  d  0              26   -0.124503357294E-15  1 O  f -2       
     2   -0.115891592531E-15  1 O  s                 18   -0.759945820627E-16  1 O  d  1       
    17    0.393033853923E-16  1 O  d  0              19   -0.347916079168E-16  1 O  d  2       
     1   -0.237141212518E-16  1 O  s          

 Vector   22  Occ=0.000000D+00  E= 2.088789D+00  Symmetry=a2
              MO Center= -1.0D-13,  3.3D-16, -1.3D-01, r^2= 1.1D+00
   Bfn.  Coefficient  Atom+Function         Bfn.  Coefficient  Atom+Function  
  ----- ------------  ---------------      ----- ------------  ---------------
    20     1.06999130441      1 O  d -2              36   -0.752730835317      2 H  py         
    42    0.752730835317      3 H  py                15   -0.133820410661E-01  1 O  d -2       
    26    0.468829646190E-02  1 O  f -2              21    0.134826327277E-12  1 O  d -1       
    13   -0.752785766652E-13  1 O  py                 7   -0.542350918638E-13  1 O  py         
    10    0.281651176652E-13  1 O  py                39    0.211114633733E-13  3 H  s          
     4   -0.178401275950E-13  1 O  s                 11    0.986305685278E-14  1 O  pz         
    33    0.915597549586E-14  2 H  s                 43    0.664087168614E-14  3 H  pz         
    41    0.601547372351E-14  3 H  px                 3    0.587207529497E-14  1 O  s          
    38   -0.584924182143E-14  3 H  s                 40   -0.488118033918E-14  3 H  s          
     9    0.430398550346E-14  1 O  px                32   -0.353165859043E-14  2 H  s          
     8   -0.301648864781E-14  1 O  pz                34   -0.219696041627E-14  2 H  s          
    25    0.205801274597E-14  1 O  f -3              35   -0.203884649455E-14  2 H  px         
    16   -0.172088532235E-14  1 O  d -1              23    0.161792542700E-14  1 O  d  1       
    37    0.155533828900E-14  2 H  pz                22    0.153582158268E-14  1 O  d  0       
     5   -0.150111338391E-14  1 O  s                 24   -0.134268016744E-14  1 O  d  2       
    12    0.129114484431E-14  1 O  px                30    0.985471993591E-15  1 O  f  2       
    14    0.791269440167E-15  1 O  pz                28   -0.480053860152E-15  1 O  f  0       
     2   -0.463054001843E-15  1 O  s                 27   -0.356299179215E-15  1 O  f -1       
    31   -0.276909046670E-15  1 O  f  3               6    0.159292216906E-15  1 O  px         
    18   -0.115804261945E-15  1 O  d  1               1   -0.103191105645E-15  1 O  s          
    29   -0.596171768714E-16  1 O  f  1              19    0.492870070630E-16  1 O  d  2       
    17    0.358314389461E-16  1 O  d  0       

 Vector   23  Occ=0.000000D+00  E= 2.281104D+00  Symmetry=b1
              MO Center= -9.1D-15, -5.4D-16, -2.8D-01, r^2= 1.6D+00
   Bfn.  Coefficient  Atom+Function         Bfn.  Coefficient  Atom+Function  
  ----- ------------  ---------------      ----- ------------  ---------------
     9     2.12717644707      1 O  px                33    -1.89879490845      2 H  s          
    39     1.89879490845      3 H  s                 35    0.821495269953      2 H  px         
    41    0.821495269953      3 H  px                34    0.795386777045      2 H  s          
    40   -0.795386777045      3 H  s                 37   -0.723952859769      2 H  pz         
    43    0.723952859769      3 H  pz                32    0.508434612131      2 H  s          
    38   -0.508434612131      3 H  s                  6   -0.416104279043      1 O  px         
    12   -0.380552214601      1 O  px                23    0.148228066171      1 O  d  1       
    29   -0.960700176951E-01  1 O  f  1              31   -0.964688900673E-01  1 O  f  3       
    18   -0.408201565479E-01  1 O  d  1               4   -0.172677313116E-13  1 O  s          
    11    0.108524388177E-13  1 O  pz                 3    0.810569178538E-14  1 O  s          
     5   -0.761092387299E-14  1 O  s                 24   -0.558316392755E-14  1 O  d  2       
     8   -0.471526278671E-14  1 O  pz                14    0.468132658686E-14  1 O  pz         
    42   -0.325343004533E-14  3 H  py                20   -0.185897798834E-14  1 O  d -2       
     2   -0.121450370938E-14  1 O  s                 21   -0.111470823199E-14  1 O  d -1       
    22   -0.105320655081E-14  1 O  d  0              30    0.899547858964E-15  1 O  f  2       
     7    0.691433121708E-15  1 O  py                13    0.469132883962E-15  1 O  py         
    28   -0.420500283818E-15  1 O  f  0               1   -0.403724131571E-15  1 O  s          
    10    0.163387586025E-15  1 O  py                36   -0.858640668162E-16  2 H  py         
    19   -0.545909518624E-16  1 O  d  2              17    0.344866544209E-16  1 O  d  0       
    15    0.207943335058E-16  1 O  d -2              25   -0.182024939426E-16  1 O  f -3       
    26   -0.711659018762E-17  1 O  f -2              16    0.434787060064E-17  1 O  d -1       
    27    0.358089658279E-17  1 O  f -1       

 Vector   24  Occ=0.000000D+00  E= 2.359906D+00  Symmetry=a1
              MO Center= -8.2D-15, -2.2D-17,  1.0D-01, r^2= 1.3D+00
   Bfn.  Coefficient  Atom+Function         Bfn.  Coefficient  Atom+Function  
  ----- ------------  ---------------      ----- ------------  ---------------
     4     1.11804878323      1 O  s                 22    0.987317541264      1 O  d  0       
    33   -0.965600166460      2 H  s                 39   -0.965600166460      3 H  s          
    14   -0.840821713500      1 O  pz                35    0.774701044515      2 H  px         
    41   -0.774701044515      3 H  px                 5    0.608942938453      1 O  s          
     3   -0.512759057169      1 O  s                  8   -0.459157581529      1 O  pz         
    37    0.343649007468      2 H  pz                43    0.343649007468      3 H  pz         
    24   -0.327862865917      1 O  d  2              32    0.204862686459      2 H  s          
    38    0.204862686459      3 H  s                  2    0.563698593015E-01  1 O  s          
    30   -0.562934113224E-01  1 O  f  2              28    0.371672825872E-01  1 O  f  0       
    34    0.193801854047E-01  2 H  s                 40    0.193801854047E-01  3 H  s          
     1    0.151072165177E-01  1 O  s                 11    0.875077890240E-02  1 O  pz         
    17    0.319986892080E-02  1 O  d  0              19    0.865571288137E-03  1 O  d  2       
     6   -0.773880619056E-14  1 O  px                12   -0.729339720113E-14  1 O  px         
    23   -0.713169715751E-14  1 O  d  1               9    0.684357468795E-14  1 O  px         
    31    0.108622462756E-14  1 O  f  3              18    0.712578254003E-15  1 O  d  1       
    36    0.507585757066E-15  2 H  py                20   -0.398552915353E-15  1 O  d -2       
    21    0.324231293667E-15  1 O  d -1              27   -0.285611646810E-15  1 O  f -1       
    15    0.238317243154E-15  1 O  d -2              29   -0.237175631471E-15  1 O  f  1       
    25   -0.209897456379E-15  1 O  f -3               7    0.208438796660E-15  1 O  py         
    26   -0.154559010919E-15  1 O  f -2              42    0.107960654065E-15  3 H  py         
    10   -0.450463067688E-16  1 O  py                13    0.406255565245E-16  1 O  py         
    16   -0.996912740679E-17  1 O  d -1       

 Vector   25  Occ=0.000000D+00  E= 2.558305D+00  Symmetry=b1
              MO Center=  6.5D-15,  8.8D-17, -8.4D-02, r^2= 1.2D+00
   Bfn.  Coefficient  Atom+Function         Bfn.  Coefficient  Atom+Function  
  ----- ------------  ---------------      ----- ------------  ---------------
    12     1.07327247880      1 O  px                33    -1.04646156460      2 H  s          
    39     1.04646156460      3 H  s                  6    0.934394044737      1 O  px         
    23    0.899256907121      1 O  d  1              35    0.825940110677      2 H  px         
    41    0.825940110677      3 H  px                37   -0.549763138938      2 H  pz         
    43    0.549763138938      3 H  pz                34   -0.371830599797      2 H  s          
    40    0.371830599797      3 H  s                 32   -0.195519659562      2 H  s          
    38    0.195519659562      3 H  s                 29   -0.493759773326E-01  1 O  f  1       
    31   -0.468511234682E-01  1 O  f  3              18   -0.388027997985E-01  1 O  d  1       
     9    0.222646595398E-01  1 O  px                 4   -0.232520347018E-13  1 O  s          
     5   -0.209253372129E-13  1 O  s                 11    0.183112801625E-13  1 O  pz         
    24   -0.150061017529E-13  1 O  d  2               8   -0.845778659262E-14  1 O  pz         
     3    0.793171194933E-14  1 O  s                 14    0.737347882159E-14  1 O  pz         
    22    0.688686278695E-14  1 O  d  0              30    0.165200470736E-14  1 O  f  2       
    36    0.123056719340E-14  2 H  py                20   -0.802469898234E-15  1 O  d -2       
    28   -0.640578187084E-15  1 O  f  0              21    0.631624734228E-15  1 O  d -1       
    42   -0.564232055287E-15  3 H  py                 2   -0.322894534203E-15  1 O  s          
    13   -0.319157431327E-15  1 O  py                 7   -0.149804977171E-15  1 O  py         
    10    0.143470634697E-15  1 O  py                17    0.118811877637E-15  1 O  d  0       
    19    0.911127256115E-16  1 O  d  2               1    0.342802569459E-16  1 O  s          
    15    0.162152745392E-16  1 O  d -2              25    0.954789968374E-17  1 O  f -3       
    27   -0.633545030077E-17  1 O  f -1              16   -0.511713943753E-17  1 O  d -1       
    26   -0.625893902154E-18  1 O  f -2       

 Vector   26  Occ=0.000000D+00  E= 2.584000D+00  Symmetry=a1
              MO Center=  2.0D-15, -1.6D-16, -3.2D-01, r^2= 1.0D+00
   Bfn.  Coefficient  Atom+Function         Bfn.  Coefficient  Atom+Function  
  ----- ------------  ---------------      ----- ------------  ---------------
     5     1.45624993234      1 O  s                 33    -1.20169623617      2 H  s          
    39    -1.20169623617      3 H  s                 37   -0.913462009512      2 H  pz         
    43   -0.913462009512      3 H  pz                 4    0.867029939651      1 O  s          
    24    0.791509206127      1 O  d  2               8   -0.787140863173      1 O  pz         
    14   -0.693614949859      1 O  pz                35    0.520230584408      2 H  px         
    41   -0.520230584408      3 H  px                22   -0.376749189056      1 O  d  0       
     3    0.194902969491      1 O  s                 34   -0.142758574550      2 H  s          
    40   -0.142758574550      3 H  s                 11    0.124822389613      1 O  pz         
     2   -0.104943416654      1 O  s                 32   -0.105157120532      2 H  s          
    38   -0.105157120532      3 H  s                 30   -0.913597486632E-01  1 O  f  2       
     1   -0.372391868821E-01  1 O  s                 28    0.294513063434E-01  1 O  f  0       
    19   -0.216378972378E-01  1 O  d  2              17   -0.148681755592E-02  1 O  d  0       
     9    0.171894188492E-13  1 O  px                23    0.109478544534E-13  1 O  d  1       
     6   -0.727228110436E-14  1 O  px                12    0.288576639103E-14  1 O  px         
    18    0.147086372032E-14  1 O  d  1              10    0.117846196134E-14  1 O  py         
     7   -0.796968530630E-15  1 O  py                13   -0.401550069366E-15  1 O  py         
    27   -0.309585777198E-15  1 O  f -1              31    0.239164535187E-15  1 O  f  3       
    21   -0.206058256546E-15  1 O  d -1              26    0.192232589823E-15  1 O  f -2       
    25    0.178059170700E-15  1 O  f -3              20   -0.156314701884E-15  1 O  d -2       
    15    0.802902658736E-16  1 O  d -2              16   -0.678231462625E-16  1 O  d -1       
    42   -0.498617455760E-16  3 H  py                36    0.270345542365E-16  2 H  py         
    29    0.204986229630E-16  1 O  f  1       

 Vector   27  Occ=0.000000D+00  E= 2.602077D+00  Symmetry=b2
              MO Center= -9.9D-16,  4.7D-16,  7.2D-03, r^2= 8.2D-01
   Bfn.  Coefficient  Atom+Function         Bfn.  Coefficient  Atom+Function  
  ----- ------------  ---------------      ----- ------------  ---------------
    10     1.67337981185      1 O  py                 7    -1.16266964404      1 O  py         
    13   -0.568770475419      1 O  py                36   -0.332669796215      2 H  py         
    42   -0.332669796215      3 H  py                21   -0.261575956416      1 O  d -1       
    25   -0.191367078076E-01  1 O  f -3              16    0.549832254517E-02  1 O  d -1       
    27   -0.309649730107E-02  1 O  f -1               5   -0.241290283595E-14  1 O  s          
    20   -0.177121100780E-14  1 O  d -2              33    0.143193820770E-14  2 H  s          
     3   -0.133013207931E-14  1 O  s                 37    0.105235093437E-14  2 H  pz         
     4    0.960441098937E-15  1 O  s                 39    0.762615847761E-15  3 H  s          
    24   -0.683069536713E-15  1 O  d  2              26   -0.683782185476E-15  1 O  f -2       
    41    0.678739160387E-15  3 H  px                40    0.671419406501E-15  3 H  s          
    14    0.588779681213E-15  1 O  pz                 9   -0.519214081072E-15  1 O  px         
    11    0.490669660177E-15  1 O  pz                35   -0.400158873697E-15  2 H  px         
    43    0.266483923748E-15  3 H  pz                 8    0.257502640120E-15  1 O  pz         
     2    0.254908002764E-15  1 O  s                 12    0.221987475512E-15  1 O  px         
    32    0.209755966985E-15  2 H  s                 18    0.205591149819E-15  1 O  d  1       
    22    0.143561675734E-15  1 O  d  0              23   -0.137327363181E-15  1 O  d  1       
    38    0.117377201424E-15  3 H  s                  1    0.939206208516E-16  1 O  s          
    34   -0.909426855780E-16  2 H  s                  6   -0.885252394202E-16  1 O  px         
    15    0.829876125698E-16  1 O  d -2              30    0.733645455545E-16  1 O  f  2       
    31   -0.551221938829E-16  1 O  f  3              19    0.308437450436E-16  1 O  d  2       
    28   -0.216104084040E-16  1 O  f  0              29    0.151477768827E-16  1 O  f  1       
    17   -0.519639494455E-17  1 O  d  0       

 Vector   28  Occ=0.000000D+00  E= 2.762579D+00  Symmetry=a1
              MO Center=  5.1D-16, -3.7D-16,  1.8D-01, r^2= 1.1D+00
   Bfn.  Coefficient  Atom+Function         Bfn.  Coefficient  Atom+Function  
  ----- ------------  ---------------      ----- ------------  ---------------
     5    -2.99050543989      1 O  s                  4     2.73640806314      1 O  s          
     3    -2.25513208290      1 O  s                 11     1.25238470831      1 O  pz         
    33    0.879480014907      2 H  s                 39    0.879480014907      3 H  s          
    35   -0.585868388387      2 H  px                41    0.585868388387      3 H  px         
     8   -0.487328019034      1 O  pz                22   -0.399409514988      1 O  d  0       
     2    0.377986170694      1 O  s                 14    0.368498032464      1 O  pz         
    34    0.341243430853      2 H  s                 40    0.341243430853      3 H  s          
[...]

     L   x y z        total         alpha         beta         nuclear
     -   - - -        -----         -----         ----         -------
     0   0 0 0     -0.000000     -5.000000     -5.000000     10.000000

     1   1 0 0      0.000000      0.000000      0.000000      0.000000
     1   0 1 0      0.000000      0.000000      0.000000      0.000000
     1   0 0 1     -0.857067     -0.428534     -0.428534      0.000000

     2   2 0 0     -3.120220     -3.637056     -3.637056      4.153892
     2   1 1 0     -0.000000     -0.000000     -0.000000      0.000000
     2   1 0 1     -0.000000     -0.000000     -0.000000      0.000000
     2   0 2 0     -5.555770     -2.777885     -2.777885      0.000000
     2   0 1 1      0.000000      0.000000      0.000000      0.000000
     2   0 0 2     -4.563572     -3.300866     -3.300866      2.038161


 Parallel integral file used       5 records with       0 large values


 HESSIAN: the one electron contributions are done in       0.1s


 HESSIAN: 2-el 1st deriv. term done in                     0.9s


 HESSIAN: 2-el 2nd deriv. term done in                     1.6s

  stpr_wrt_fd_from_sq: overwrite of existing file:./f_water.hess
 stpr_wrt_fd_dipole: overwrite of existing file./f_water.fd_ddipole

 HESSIAN: the two electron contributions are done in       2.6s

                                NWChem CPHF Module
                                ------------------


  scftype          =     UHF 
  nalpha           =        5
  nbeta            =        5
  variables        =      380
  # of vectors     =        9
  tolerance        = 0.10D-03
  level shift      = 0.00D+00
  max iterations   =       50
  max subspace     =       90


 Integral file          = ./f_water.aoints.0
 Record size in doubles =    65536    No. of integs per rec  =    43688
 Max. records in memory =       16    Max. records in file   = ********
 No. of bits per label  =        8    No. of bits per value  =       64


 #quartets = 1.815D+04 #integrals = 1.991D+05 #direct =  0.0% #cached =100.0%

 SCF residual:   2.44031107848108786E-008


Iterative solution of linear equations
  No. of variables      380
  No. of equations        9
  Maximum subspace       90
        Iterations       50
       Convergence  1.0D-04
        Start time      6.6


   iter   nsub   residual    time
   ----  ------  --------  ---------
     1      9    9.07D-02       7.3
     2     18    3.88D-02       7.9
     3     27    6.92D-03       8.5
     4     36    9.83D-04       9.2
     5     45    1.77D-04       9.8
     6     54    1.79D-05      10.5

 Parallel integral file used       5 records with       0 large values

 HESSIAN: the CPHF contributions are done
  stpr_wrt_fd_from_sq: overwrite of existing file:./f_water.hess
 stpr_wrt_fd_dipole: overwrite of existing file./f_water.fd_ddipole

 Derivative Dipole

  
  
 X vector of derivative dipole (au) [debye/angstrom]
 d_dipole_x/<atom=   1,x> =    -0.5355     [   -2.5723]
 d_dipole_x/<atom=   1,y> =    -0.0000     [   -0.0000]
 d_dipole_x/<atom=   1,z> =     0.0000     [    0.0000]
 d_dipole_x/<atom=   2,x> =     0.2678     [    1.2861]
 d_dipole_x/<atom=   2,y> =     0.0000     [    0.0000]
 d_dipole_x/<atom=   2,z> =     0.0877     [    0.4210]
 d_dipole_x/<atom=   3,x> =     0.2678     [    1.2861]
 d_dipole_x/<atom=   3,y> =     0.0000     [    0.0000]
 d_dipole_x/<atom=   3,z> =    -0.0877     [   -0.4210]
  
 Y vector of derivative dipole (au) [debye/angstrom]
 d_dipole_y/<atom=   1,x> =    -0.0000     [   -0.0000]
 d_dipole_y/<atom=   1,y> =    -0.7594     [   -3.6474]
 d_dipole_y/<atom=   1,z> =    -0.0000     [   -0.0000]
 d_dipole_y/<atom=   2,x> =    -0.0000     [   -0.0000]
 d_dipole_y/<atom=   2,y> =     0.3797     [    1.8237]
 d_dipole_y/<atom=   2,z> =     0.0000     [    0.0000]
 d_dipole_y/<atom=   3,x> =     0.0000     [    0.0000]
 d_dipole_y/<atom=   3,y> =     0.3797     [    1.8237]
 d_dipole_y/<atom=   3,z> =    -0.0000     [   -0.0000]
  
 Z vector of derivative dipole (au) [debye/angstrom]
 d_dipole_z/<atom=   1,x> =    -0.0000     [   -0.0000]
 d_dipole_z/<atom=   1,y> =    -0.0000     [   -0.0000]
 d_dipole_z/<atom=   1,z> =    -0.4319     [   -2.0746]
 d_dipole_z/<atom=   2,x> =     0.0567     [    0.2724]
 d_dipole_z/<atom=   2,y> =     0.0000     [    0.0000]
 d_dipole_z/<atom=   2,z> =     0.2160     [    1.0373]
 d_dipole_z/<atom=   3,x> =    -0.0567     [   -0.2724]
 d_dipole_z/<atom=   3,y> =     0.0000     [    0.0000]
 d_dipole_z/<atom=   3,z> =     0.2160     [    1.0373]
  
  
 HESSIAN: the Hessian is done


  Vibrational analysis via the FX method 

  See chapter 2 in "Molecular Vibrations" by Wilson, Decius and Cross

  Vib: Default input used 

  Nuclear Hessian passed symmetry test 



 ---------------------------- Atom information ----------------------------
     atom    #        X              Y              Z            mass
 --------------------------------------------------------------------------
    O        1  0.0000000D+00  0.0000000D+00  2.2572996D-01  1.5994910D+01
    H        2  1.4411613D+00  0.0000000D+00 -9.0291985D-01  1.0078250D+00
    H        3 -1.4411613D+00  0.0000000D+00 -9.0291985D-01  1.0078250D+00
 --------------------------------------------------------------------------




          ----------------------------------------------------
          MASS-WEIGHTED NUCLEAR HESSIAN (Hartree/Bohr/Bohr/Kamu)
          ----------------------------------------------------


               1            2            3            4            5            6            7            8            9
   ----- ----- ----- ----- -----
    1    4.13948D+01
    2   -1.81454D-14  2.09687D+00
    3    8.83777D-13 -1.26657D-14  2.98487D+01
    4   -8.24545D+01  2.00710D-14  4.62740D+01  3.61948D+02
    5    3.79366D-14 -4.17676D+00 -2.49244D-14 -1.00672D-13  1.51015D+01
    6    6.13035D+01 -9.88043D-15 -5.94557D+01 -2.14284D+02  1.38530D-13  2.20843D+02
    7   -8.24545D+01  7.28417D-14 -4.62740D+01 -3.34657D+01 -2.68285D-14 -2.99373D+01  3.61948D+02
    8    3.43513D-14 -4.17676D+00  4.39507D-14  3.77536D-14  1.53796D+00 -3.72577D-14 -1.74603D-13  1.51015D+01
    9   -6.13035D+01  6.03380D-14 -5.94557D+01  2.99376D+01  2.45403D-14  1.60169D+01  2.14284D+02 -2.64915D-13  2.20843D+02



          -------------------------------------------------
          NORMAL MODE EIGENVECTORS IN CARTESIAN COORDINATES
          -------------------------------------------------
                 (Frequencies expressed in cm-1)

                    1           2           3           4           5           6
 
 Frequency         -0.58        0.01        0.58      598.67      637.42      703.63
 
           1     0.16661     0.00000    -0.16662     0.00000    -0.04936     0.00000
           2     0.00000     0.23563     0.00000     0.00000     0.00000    -0.08365
           3    -0.16662     0.00000    -0.16661     0.00000     0.00000     0.00000
           4     0.16661     0.00000    -0.16662     0.00000     0.39173     0.00000
           5     0.00000     0.23563     0.00000    -0.70436     0.00000     0.66377
           6    -0.16662     0.00000    -0.16661     0.00000     0.56862     0.00000
           7     0.16661     0.00000    -0.16662     0.00000     0.39173     0.00000
           8     0.00000     0.23563     0.00000     0.70436     0.00000     0.66377
           9    -0.16662     0.00000    -0.16661     0.00000    -0.56862     0.00000

                    7           8           9
 
 Frequency       1818.39     3766.94     3844.48
 
           1     0.00000     0.00000    -0.06753
           2     0.00000     0.00000     0.00000
           3    -0.06776     0.04904     0.00000
           4     0.41297     0.57059     0.53586
           5     0.00000     0.00000     0.00000
           6     0.53772    -0.38917    -0.41568
           7    -0.41297    -0.57059     0.53586
           8     0.00000     0.00000     0.00000
           9     0.53772    -0.38917     0.41568



 ----------------------------------------------------------------------------
 Normal Eigenvalue ||         Derivative Dipole Moments (debye/angs)
  Mode   [cm**-1]  ||      [d/dqX]             [d/dqY]           [d/dqZ]
 ------ ---------- || ------------------ ------------------ -----------------
    1       -0.576 ||       0.000               0.000            -0.000
    2        0.006 ||       0.000               0.000             0.000
    3        0.576 ||      -0.000              -0.000            -0.000
    4      598.674 ||      -0.000               0.000            -0.000
    5      637.424 ||       1.613               0.000            -0.000
    6      703.633 ||       0.000               2.726             0.000
    7     1818.388 ||      -0.000              -0.000             1.481
    8     3766.937 ||       0.000               0.000             0.598
    9     3844.479 ||       1.202              -0.000             0.000
 ----------------------------------------------------------------------------



  
  
 ----------------------------------------------------------------------------
 Normal Eigenvalue ||                 Infra Red Intensities
  Mode   [cm**-1]  || [atomic units] [(debye/angs)**2] [(KM/mol)] [arbitrary]
 ------ ---------- || -------------- ----------------- ---------- -----------
    1       -0.576 ||    0.000000           0.000         0.000       0.000
    2        0.006 ||    0.000000           0.000         0.000       0.000
    3        0.576 ||    0.000000           0.000         0.000       0.000
    4      598.674 ||    0.000000           0.000         0.000       0.000
    5      637.424 ||    0.112830           2.603       109.992      16.697
    6      703.633 ||    0.322129           7.432       314.027      47.669
    7     1818.388 ||    0.095087           2.194        92.696      14.071
    8     3766.937 ||    0.015511           0.358        15.121       2.295
    9     3844.479 ||    0.062631           1.445        61.056       9.268
 ----------------------------------------------------------------------------





        Vibrational analysis via the FX method 
  --- with translations and rotations projected out ---
  --- via the Eckart algorithm                      ---
 Projected Nuclear Hessian trans-rot subspace norm:3.8520D-33
                         (should be close to zero!) 

          --------------------------------------------------------
          MASS-WEIGHTED PROJECTED HESSIAN (Hartree/Bohr/Bohr/Kamu)
          --------------------------------------------------------


               1            2            3            4            5            6            7            8            9
   ----- ----- ----- ----- -----
    1    4.08237D+01
    2    8.47679D-30  0.00000D+00
    3    1.30554D-06  4.62370D-30  2.98487D+01
    4   -8.13169D+01 -3.06999D-30  4.62740D+01  3.59682D+02
    5    1.49662D-29  0.00000D+00  1.38150D-29  1.07015D-29  0.00000D+00
    6    6.36835D+01  1.53500D-30 -5.94557D+01 -2.19025D+02  0.00000D+00  2.17774D+02
    7   -8.13168D+01 -3.68399D-29 -4.62740D+01 -3.57317D+01 -6.11512D-29 -3.46782D+01  3.59682D+02
    8    1.22800D-29  0.00000D+00 -3.06999D-30 -3.05756D-29 -2.15157D-16  1.22302D-29 -1.83454D-29  0.00000D+00
    9   -6.36835D+01 -2.45599D-29 -5.94557D+01  3.46782D+01 -5.19786D-29  1.90859D+01  2.19025D+02 -4.89210D-29  2.17774D+02

 center of mass
 --------------
 x =   0.00000000 y =   0.00000000 z =   0.09941723

 moments of inertia (a.u.)
 ------------------
           2.280279749902           0.000000000000           0.000000000000
           0.000000000000           6.466675934891           0.000000000000
           0.000000000000           0.000000000000           4.186396184989

 Rotational Constants
 --------------------
 A=  26.400347 cm-1  ( 37.983361 K)
 B=  14.379952 cm-1  ( 20.689081 K)
 C=   9.309292 cm-1  ( 13.393696 K)


 Temperature                      =   298.15K
 frequency scaling parameter      =   1.0000

 Zero-Point correction to Energy  =   13.494 kcal/mol  (  0.021505 au)
 Thermal correction to Energy     =   15.272 kcal/mol  (  0.024337 au)
 Thermal correction to Enthalpy   =   15.864 kcal/mol  (  0.025281 au)

 Total Entropy                    =   45.113 cal/mol-K
   - Translational                =   34.593 cal/mol-K (mol. weight =  18.0106)
   - Rotational                   =   10.517 cal/mol-K (symmetry #  =        2)
   - Vibrational                  =    0.003 cal/mol-K

 Cv (constant volume heat capacity) =    5.983 cal/mol-K
   - Translational                  =    2.979 cal/mol-K
   - Rotational                     =    2.979 cal/mol-K
   - Vibrational                    =    0.024 cal/mol-K



          -------------------------------------------------
          NORMAL MODE EIGENVECTORS IN CARTESIAN COORDINATES
          -------------------------------------------------
             (Projected Frequencies expressed in cm-1)

                    1           2           3           4           5           6
 
 P.Frequency       -0.00        0.00        0.00        0.00        0.00        0.00
 
           1    -0.04832     0.00000     0.00000     0.00000     0.00558    -0.23585
           2     0.00000     0.25004     0.00000     0.00000     0.00000     0.00000
           3    -0.02685     0.00000     0.00000     0.00000    -0.23410    -0.00004
           4     0.39261     0.00000     0.00000     0.00000    -0.04499    -0.23392
           5     0.00000     0.00000     0.99611     0.00000     0.00000     0.00000
           6     0.53618     0.00000     0.00000     0.00000    -0.29867     0.00243
           7     0.39261     0.00000     0.00000     0.00000    -0.04499    -0.23392
           8     0.00000     0.00000     0.00000     0.99611     0.00000     0.00000
           9    -0.58988     0.00000     0.00000     0.00000    -0.16952    -0.00251

                    7           8           9
 
 P.Frequency     1818.39     3766.94     3858.66
 
           1     0.00000     0.00000    -0.06730
           2     0.00000     0.00000     0.00000
           3    -0.06776     0.04904     0.00000
           4     0.41297     0.57059     0.53407
           5     0.00000     0.00000     0.00000
           6     0.53772    -0.38917    -0.41826
           7    -0.41297    -0.57059     0.53407
           8     0.00000     0.00000     0.00000
           9     0.53772    -0.38917     0.41826



 ----------------------------------------------------------------------------
 Normal Eigenvalue ||    Projected Derivative Dipole Moments (debye/angs)
  Mode   [cm**-1]  ||      [d/dqX]             [d/dqY]           [d/dqZ]
 ------ ---------- || ------------------ ------------------ -----------------
    1       -0.000 ||      -1.608              -0.000            -0.000
    2        0.000 ||      -0.000              -0.912            -0.000
    3        0.000 ||       0.000               1.817             0.000
    4        0.000 ||       0.000               1.817             0.000
    5        0.000 ||       0.184               0.000            -0.000
    6        0.000 ||      -0.007              -0.000            -0.000
    7     1818.387 ||      -0.000              -0.000             1.481
    8     3766.937 ||       0.000               0.000             0.598
    9     3858.663 ||       1.195              -0.000            -0.000
 ----------------------------------------------------------------------------



  
  
 ----------------------------------------------------------------------------
 Normal Eigenvalue ||           Projected Infra Red Intensities
  Mode   [cm**-1]  || [atomic units] [(debye/angs)**2] [(KM/mol)] [arbitrary]
 ------ ---------- || -------------- ----------------- ---------- -----------
    1       -0.000 ||    0.112116           2.587       109.296      16.591
    2        0.000 ||    0.036051           0.832        35.144       5.335
    3        0.000 ||    0.143039           3.300       139.442      21.167
    4        0.000 ||    0.143039           3.300       139.442      21.167
    5        0.000 ||    0.001475           0.034         1.438       0.218
    6        0.000 ||    0.000002           0.000         0.002       0.000
    7     1818.387 ||    0.095087           2.194        92.696      14.071
    8     3766.937 ||    0.015511           0.358        15.121       2.295
    9     3858.663 ||    0.061868           1.427        60.312       9.155
 ----------------------------------------------------------------------------



 vib:animation  F

 Task  times  cpu:        7.7s     wall:        7.9s


                                NWChem Input Module
                                -------------------


 Summary of allocated global arrays
-----------------------------------
  No active global arrays



                         GA Statistics for process    0
                         ------------------------------

       create   destroy   get      put      acc     scatter   gather  read&inc
calls: 2684     2684     4.65e+05 6.45e+04 2.97e+05 1310        0     1284     
number of processes/call 1.00e+00 1.00e+00 1.00e+00 1.00e+00 0.00e+00
bytes total:             8.35e+08 5.92e+07 7.08e+08 8.15e+06 0.00e+00 1.03e+04
bytes remote:            0.00e+00 0.00e+00 0.00e+00 0.00e+00 0.00e+00 0.00e+00
Max memory consumed for GA by this process: 2771896 bytes

MA_summarize_allocated_blocks: starting scan ...
MA_summarize_allocated_blocks: scan completed: 0 heap blocks, 0 stack blocks
MA usage statistics:

	allocation statistics:
					      heap	     stack
					      ----	     -----
	current number of blocks	         0	         0
	maximum number of blocks	        26	        55
	current total bytes		         0	         0
	maximum total bytes		   8414032	 115550008
	maximum total K-bytes		      8415	    115551
	maximum total M-bytes		         9	       116


                                     CITATION
                                     --------
                Please cite the following reference when publishing
                           results obtained with NWChem:

                 M. Valiev, E.J. Bylaska, N. Govind, K. Kowalski,
              T.P. Straatsma, H.J.J. van Dam, D. Wang, J. Nieplocha,
                        E. Apra, T.L. Windus, W.A. de Jong
                 "NWChem: a comprehensive and scalable open-source
                  solution for large scale molecular simulations"
                      Comput. Phys. Commun. 181, 1477 (2010)
                           doi:10.1016/j.cpc.2010.04.018

                                      AUTHORS
                                      -------
          E. Apra, E. J. Bylaska, W. A. de Jong, N. Govind, K. Kowalski,
       T. P. Straatsma, M. Valiev, H. J. J. van Dam, D. Wang, T. L. Windus,
        J. Hammond, J. Autschbach, K. Bhaskaran-Nair, J. Brabec, K. Lopata,
        S. Krishnamoorthy, W. Ma, M. Klemm, O. Villa, Y. Chen, V. Anisimov,
    F. Aquino, S. Hirata, M. T. Hackler, T. Risthaus, M. Malagoli, A. Marenich,
   A. Otero-de-la-Roza, J. Mullin, P. Nichols, R. Peverati, J. Pittner, Y. Zhao,
         P.-D. Fan, A. Fonari, R. J. Harrison, M. Dupuis, D. Silverstein,
    D. M. A. Smith, J. Nieplocha, V. Tipparaju, M. Krishnan, B. E. Van Kuiken,
        A. Vazquez-Mayagoitia, L. Jensen, M. Swart, Q. Wu, T. Van Voorhis,
     A. A. Auer, M. Nooijen, L. D. Crosby, E. Brown, G. Cisneros, G. I. Fann,
   H. Fruchtl, J. Garza, K. Hirao, R. A. Kendall, J. A. Nichols, K. Tsemekhman,
    K. Wolinski, J. Anchell, D. E. Bernholdt, P. Borowski, T. Clark, D. Clerc,
   H. Dachsel, M. J. O. Deegan, K. Dyall, D. Elwood, E. Glendening, M. Gutowski,
   A. C. Hess, J. Jaffe, B. G. Johnson, J. Ju, R. Kobayashi, R. Kutteh, Z. Lin,
   R. Littlefield, X. Long, B. Meng, T. Nakajima, S. Niu, L. Pollack, M. Rosing,
   K. Glaesemann, G. Sandrone, M. Stave, H. Taylor, G. Thomas, J. H. van Lenthe,
                               A. T. Wong, Z. Zhang.

 Total times  cpu:       10.2s     wall:       10.7s
